# vtk DataFile Version 3.0
BencenoSIG_ZZ vkfile_converted
ASCII
DATASET STRUCTURED_POINTS
DIMENSIONS 51 51 51
ORIGIN -5 -5 -5
SPACING 0.199999895373305 0.199999895373305 0.199999895373305
POINT_DATA 132651
SCALARS scalars float 1
LOOKUP_TABLE default
 0.00000e+00  0.00000e+00  -3.00000e-02  -2.00000e-02  -3.00000e-02  -2.00000e-02  -3.00000e-02  -3.00000e-02  -5.00000e-02  -4.00000e-02  -5.00000e-02  -4.00000e-02  -6.00000e-02  -5.00000e-02  -7.00000e-02  -7.00000e-02  -7.00000e-02  -9.00000e-02  -8.00000e-02  -9.00000e-02  -8.00000e-02  -6.00000e-02  -7.00000e-02  -7.00000e-02  -8.00000e-02  -8.00000e-02  -8.00000e-02  -7.00000e-02  -7.00000e-02  -6.00000e-02  -8.00000e-02  -9.00000e-02  -8.00000e-02  -9.00000e-02  -7.00000e-02  -7.00000e-02  -7.00000e-02  -5.00000e-02  -6.00000e-02  -4.00000e-02  -5.00000e-02  -4.00000e-02  -4.00000e-02  -3.00000e-02  -4.00000e-02  -3.00000e-02  -2.00000e-02  -2.00000e-02  -3.00000e-02  0.00000e+00  0.00000e+00 
 -1.00000e-02  -1.00000e-02  -3.00000e-02  -2.00000e-02  -1.00000e-02  -3.00000e-02  -4.00000e-02  -5.00000e-02  -4.00000e-02  -5.00000e-02  -5.00000e-02  -6.00000e-02  -6.00000e-02  -7.00000e-02  -8.00000e-02  -8.00000e-02  -7.00000e-02  -7.00000e-02  -8.00000e-02  -1.00000e-01  -1.00000e-01  -9.00000e-02  -9.00000e-02  -9.00000e-02  -9.00000e-02  -9.00000e-02  -9.00000e-02  -9.00000e-02  -9.00000e-02  -9.00000e-02  -1.00000e-01  -9.00000e-02  -8.00000e-02  -7.00000e-02  -8.00000e-02  -8.00000e-02  -8.00000e-02  -7.00000e-02  -6.00000e-02  -6.00000e-02  -5.00000e-02  -5.00000e-02  -4.00000e-02  -5.00000e-02  -4.00000e-02  -3.00000e-02  -1.00000e-02  -2.00000e-02  -3.00000e-02  -1.00000e-02  -1.00000e-02 
 -2.00000e-02  -1.00000e-02  -2.00000e-02  -2.00000e-02  -3.00000e-02  -3.00000e-02  -3.00000e-02  -4.00000e-02  -5.00000e-02  -7.00000e-02  -5.00000e-02  -6.00000e-02  -7.00000e-02  -8.00000e-02  -7.00000e-02  -7.00000e-02  -9.00000e-02  -8.00000e-02  -8.00000e-02  -1.00000e-01  -1.20000e-01  -1.10000e-01  -1.20000e-01  -1.20000e-01  -1.20000e-01  -1.20000e-01  -1.20000e-01  -1.20000e-01  -1.20000e-01  -1.10000e-01  -1.20000e-01  -1.00000e-01  -8.00000e-02  -8.00000e-02  -9.00000e-02  -7.00000e-02  -7.00000e-02  -8.00000e-02  -8.00000e-02  -7.00000e-02  -6.00000e-02  -8.00000e-02  -6.00000e-02  -5.00000e-02  -4.00000e-02  -4.00000e-02  -4.00000e-02  -2.00000e-02  -2.00000e-02  -1.00000e-02  -2.00000e-02 
 -2.00000e-02  -2.00000e-02  -2.00000e-02  -2.00000e-02  -5.00000e-02  -4.00000e-02  -4.00000e-02  -5.00000e-02  -4.00000e-02  -6.00000e-02  -7.00000e-02  -7.00000e-02  -7.00000e-02  -6.00000e-02  -9.00000e-02  -1.00000e-01  -1.00000e-01  -1.10000e-01  -1.00000e-01  -1.00000e-01  -1.20000e-01  -1.20000e-01  -1.30000e-01  -1.30000e-01  -1.30000e-01  -1.40000e-01  -1.30000e-01  -1.30000e-01  -1.30000e-01  -1.20000e-01  -1.20000e-01  -1.00000e-01  -1.00000e-01  -1.10000e-01  -1.00000e-01  -9.00000e-02  -9.00000e-02  -6.00000e-02  -7.00000e-02  -8.00000e-02  -7.00000e-02  -6.00000e-02  -4.00000e-02  -4.00000e-02  -4.00000e-02  -4.00000e-02  -5.00000e-02  -2.00000e-02  -2.00000e-02  -2.00000e-02  -2.00000e-02 
 -1.00000e-02  -1.00000e-02  -4.00000e-02  -3.00000e-02  -5.00000e-02  -5.00000e-02  -6.00000e-02  -6.00000e-02  -7.00000e-02  -6.00000e-02  -9.00000e-02  -9.00000e-02  -9.00000e-02  -1.00000e-01  -1.00000e-01  -9.00000e-02  -1.00000e-01  -1.20000e-01  -1.20000e-01  -1.20000e-01  -1.30000e-01  -1.40000e-01  -1.40000e-01  -1.50000e-01  -1.40000e-01  -1.40000e-01  -1.40000e-01  -1.50000e-01  -1.40000e-01  -1.40000e-01  -1.30000e-01  -1.20000e-01  -1.20000e-01  -1.20000e-01  -1.00000e-01  -9.00000e-02  -1.00000e-01  -9.00000e-02  -9.00000e-02  -9.00000e-02  -9.00000e-02  -6.00000e-02  -7.00000e-02  -6.00000e-02  -6.00000e-02  -5.00000e-02  -5.00000e-02  -3.00000e-02  -4.00000e-02  -1.00000e-02  -1.00000e-02 
 -4.00000e-02  -3.00000e-02  -5.00000e-02  -3.00000e-02  -5.00000e-02  -6.00000e-02  -6.00000e-02  -7.00000e-02  -9.00000e-02  -9.00000e-02  -6.00000e-02  -8.00000e-02  -1.00000e-01  -1.10000e-01  -1.10000e-01  -1.20000e-01  -1.20000e-01  -1.40000e-01  -1.40000e-01  -1.50000e-01  -1.60000e-01  -1.60000e-01  -1.70000e-01  -1.70000e-01  -1.70000e-01  -1.70000e-01  -1.70000e-01  -1.70000e-01  -1.70000e-01  -1.60000e-01  -1.60000e-01  -1.50000e-01  -1.30000e-01  -1.40000e-01  -1.20000e-01  -1.20000e-01  -1.10000e-01  -1.10000e-01  -1.00000e-01  -8.00000e-02  -6.00000e-02  -8.00000e-02  -9.00000e-02  -7.00000e-02  -6.00000e-02  -5.00000e-02  -5.00000e-02  -3.00000e-02  -5.00000e-02  -3.00000e-02  -4.00000e-02 
 -3.00000e-02  -3.00000e-02  -4.00000e-02  -6.00000e-02  -7.00000e-02  -8.00000e-02  -6.00000e-02  -7.00000e-02  -8.00000e-02  -9.00000e-02  -9.00000e-02  -1.00000e-01  -1.10000e-01  -1.20000e-01  -1.40000e-01  -1.40000e-01  -1.50000e-01  -1.60000e-01  -1.60000e-01  -1.70000e-01  -1.70000e-01  -1.80000e-01  -1.70000e-01  -1.60000e-01  -1.80000e-01  -1.80000e-01  -1.80000e-01  -1.60000e-01  -1.70000e-01  -1.80000e-01  -1.70000e-01  -1.70000e-01  -1.50000e-01  -1.60000e-01  -1.50000e-01  -1.40000e-01  -1.40000e-01  -1.20000e-01  -1.10000e-01  -1.00000e-01  -9.00000e-02  -8.00000e-02  -8.00000e-02  -7.00000e-02  -6.00000e-02  -8.00000e-02  -7.00000e-02  -6.00000e-02  -4.00000e-02  -3.00000e-02  -3.00000e-02 
 -4.00000e-02  -4.00000e-02  -5.00000e-02  -4.00000e-02  -5.00000e-02  -6.00000e-02  -9.00000e-02  -8.00000e-02  -9.00000e-02  -1.00000e-01  -1.00000e-01  -1.00000e-01  -1.10000e-01  -1.30000e-01  -1.50000e-01  -1.40000e-01  -1.60000e-01  -1.70000e-01  -1.80000e-01  -1.80000e-01  -1.80000e-01  -1.90000e-01  -1.70000e-01  -2.00000e-01  -1.90000e-01  -1.90000e-01  -1.90000e-01  -2.00000e-01  -1.70000e-01  -1.90000e-01  -1.80000e-01  -1.80000e-01  -1.90000e-01  -1.70000e-01  -1.60000e-01  -1.40000e-01  -1.40000e-01  -1.30000e-01  -1.10000e-01  -1.00000e-01  -1.00000e-01  -1.00000e-01  -9.00000e-02  -8.00000e-02  -9.00000e-02  -6.00000e-02  -6.00000e-02  -4.00000e-02  -5.00000e-02  -4.00000e-02  -4.00000e-02 
 -4.00000e-02  -3.00000e-02  -5.00000e-02  -7.00000e-02  -6.00000e-02  -7.00000e-02  -8.00000e-02  -1.00000e-01  -1.00000e-01  -1.20000e-01  -1.10000e-01  -1.20000e-01  -1.50000e-01  -1.50000e-01  -1.50000e-01  -1.50000e-01  -1.90000e-01  -1.90000e-01  -2.00000e-01  -2.00000e-01  -1.90000e-01  -2.10000e-01  -2.00000e-01  -2.20000e-01  -2.10000e-01  -2.10000e-01  -2.10000e-01  -2.20000e-01  -2.00000e-01  -2.10000e-01  -1.90000e-01  -2.00000e-01  -2.00000e-01  -1.90000e-01  -1.90000e-01  -1.60000e-01  -1.50000e-01  -1.50000e-01  -1.50000e-01  -1.20000e-01  -1.10000e-01  -1.20000e-01  -1.00000e-01  -1.00000e-01  -8.00000e-02  -8.00000e-02  -6.00000e-02  -6.00000e-02  -5.00000e-02  -3.00000e-02  -4.00000e-02 
 -5.00000e-02  -5.00000e-02  -6.00000e-02  -7.00000e-02  -8.00000e-02  -8.00000e-02  -9.00000e-02  -8.00000e-02  -1.10000e-01  -1.30000e-01  -1.20000e-01  -1.40000e-01  -1.60000e-01  -1.70000e-01  -1.70000e-01  -1.70000e-01  -1.90000e-01  -2.10000e-01  -2.20000e-01  -2.10000e-01  -2.20000e-01  -2.20000e-01  -2.20000e-01  -2.40000e-01  -2.40000e-01  -2.40000e-01  -2.40000e-01  -2.40000e-01  -2.30000e-01  -2.20000e-01  -2.20000e-01  -2.10000e-01  -2.20000e-01  -2.10000e-01  -1.80000e-01  -1.70000e-01  -1.70000e-01  -1.70000e-01  -1.60000e-01  -1.40000e-01  -1.20000e-01  -1.30000e-01  -1.10000e-01  -8.00000e-02  -9.00000e-02  -8.00000e-02  -8.00000e-02  -7.00000e-02  -6.00000e-02  -5.00000e-02  -5.00000e-02 
 -6.00000e-02  -5.00000e-02  -7.00000e-02  -6.00000e-02  -9.00000e-02  -7.00000e-02  -8.00000e-02  -1.10000e-01  -1.10000e-01  -1.20000e-01  -1.30000e-01  -1.40000e-01  -1.50000e-01  -1.80000e-01  -1.90000e-01  -1.90000e-01  -1.90000e-01  -2.10000e-01  -2.20000e-01  -2.30000e-01  -2.40000e-01  -2.50000e-01  -2.40000e-01  -2.60000e-01  -2.60000e-01  -2.60000e-01  -2.60000e-01  -2.60000e-01  -2.40000e-01  -2.50000e-01  -2.40000e-01  -2.30000e-01  -2.20000e-01  -2.10000e-01  -1.90000e-01  -1.90000e-01  -1.90000e-01  -1.80000e-01  -1.50000e-01  -1.40000e-01  -1.30000e-01  -1.20000e-01  -1.00000e-01  -1.10000e-01  -9.00000e-02  -7.00000e-02  -8.00000e-02  -7.00000e-02  -7.00000e-02  -5.00000e-02  -6.00000e-02 
 -5.00000e-02  -6.00000e-02  -6.00000e-02  -8.00000e-02  -8.00000e-02  -9.00000e-02  -1.00000e-01  -1.10000e-01  -1.20000e-01  -1.40000e-01  -1.40000e-01  -1.60000e-01  -1.90000e-01  -1.80000e-01  -2.10000e-01  -2.00000e-01  -2.30000e-01  -2.30000e-01  -2.40000e-01  -2.40000e-01  -2.60000e-01  -2.70000e-01  -2.80000e-01  -2.60000e-01  -2.80000e-01  -2.80000e-01  -2.80000e-01  -2.60000e-01  -2.80000e-01  -2.70000e-01  -2.60000e-01  -2.40000e-01  -2.40000e-01  -2.30000e-01  -2.30000e-01  -2.00000e-01  -2.10000e-01  -1.80000e-01  -1.90000e-01  -1.50000e-01  -1.40000e-01  -1.40000e-01  -1.30000e-01  -1.00000e-01  -1.00000e-01  -9.00000e-02  -8.00000e-02  -8.00000e-02  -6.00000e-02  -6.00000e-02  -6.00000e-02 
 -6.00000e-02  -6.00000e-02  -7.00000e-02  -9.00000e-02  -9.00000e-02  -1.10000e-01  -1.00000e-01  -1.30000e-01  -1.50000e-01  -1.50000e-01  -1.70000e-01  -1.90000e-01  -1.90000e-01  -2.20000e-01  -2.00000e-01  -2.30000e-01  -2.60000e-01  -2.50000e-01  -2.50000e-01  -2.80000e-01  -2.80000e-01  -2.80000e-01  -2.80000e-01  -3.00000e-01  -2.90000e-01  -2.90000e-01  -2.90000e-01  -3.00000e-01  -2.80000e-01  -2.80000e-01  -2.80000e-01  -2.80000e-01  -2.50000e-01  -2.50000e-01  -2.60000e-01  -2.30000e-01  -2.10000e-01  -2.20000e-01  -1.90000e-01  -1.90000e-01  -1.70000e-01  -1.50000e-01  -1.50000e-01  -1.30000e-01  -1.00000e-01  -1.10000e-01  -9.00000e-02  -9.00000e-02  -7.00000e-02  -6.00000e-02  -6.00000e-02 
 -6.00000e-02  -6.00000e-02  -9.00000e-02  -7.00000e-02  -1.00000e-01  -1.10000e-01  -1.30000e-01  -1.30000e-01  -1.50000e-01  -1.70000e-01  -1.70000e-01  -2.00000e-01  -2.10000e-01  -2.10000e-01  -2.20000e-01  -2.40000e-01  -2.50000e-01  -2.70000e-01  -2.90000e-01  -2.80000e-01  -3.00000e-01  -3.00000e-01  -3.10000e-01  -3.20000e-01  -3.20000e-01  -3.10000e-01  -3.20000e-01  -3.20000e-01  -3.10000e-01  -3.00000e-01  -3.00000e-01  -2.80000e-01  -2.90000e-01  -2.70000e-01  -2.60000e-01  -2.50000e-01  -2.10000e-01  -2.00000e-01  -2.10000e-01  -2.00000e-01  -1.70000e-01  -1.70000e-01  -1.50000e-01  -1.30000e-01  -1.30000e-01  -1.10000e-01  -1.00000e-01  -7.00000e-02  -9.00000e-02  -6.00000e-02  -6.00000e-02 
 -7.00000e-02  -8.00000e-02  -9.00000e-02  -9.00000e-02  -1.00000e-01  -1.10000e-01  -1.30000e-01  -1.40000e-01  -1.60000e-01  -1.70000e-01  -1.80000e-01  -2.10000e-01  -2.20000e-01  -2.30000e-01  -2.40000e-01  -2.60000e-01  -2.70000e-01  -2.80000e-01  -3.10000e-01  -3.00000e-01  -3.00000e-01  -3.20000e-01  -3.20000e-01  -3.30000e-01  -3.30000e-01  -3.30000e-01  -3.30000e-01  -3.30000e-01  -3.20000e-01  -3.20000e-01  -3.00000e-01  -3.00000e-01  -3.10000e-01  -2.80000e-01  -2.70000e-01  -2.60000e-01  -2.40000e-01  -2.30000e-01  -2.20000e-01  -2.10000e-01  -1.80000e-01  -1.70000e-01  -1.60000e-01  -1.40000e-01  -1.20000e-01  -1.10000e-01  -1.00000e-01  -9.00000e-02  -9.00000e-02  -7.00000e-02  -7.00000e-02 
 -7.00000e-02  -8.00000e-02  -7.00000e-02  -9.00000e-02  -9.00000e-02  -1.20000e-01  -1.20000e-01  -1.40000e-01  -1.60000e-01  -1.80000e-01  -1.90000e-01  -2.10000e-01  -2.40000e-01  -2.50000e-01  -2.60000e-01  -2.70000e-01  -2.80000e-01  -3.10000e-01  -3.00000e-01  -3.20000e-01  -3.40000e-01  -3.20000e-01  -3.40000e-01  -3.30000e-01  -3.50000e-01  -3.40000e-01  -3.50000e-01  -3.30000e-01  -3.40000e-01  -3.20000e-01  -3.40000e-01  -3.10000e-01  -3.00000e-01  -3.10000e-01  -2.80000e-01  -2.70000e-01  -2.70000e-01  -2.50000e-01  -2.40000e-01  -2.10000e-01  -1.90000e-01  -1.80000e-01  -1.60000e-01  -1.40000e-01  -1.20000e-01  -1.20000e-01  -9.00000e-02  -1.00000e-01  -7.00000e-02  -8.00000e-02  -7.00000e-02 
 -7.00000e-02  -9.00000e-02  -8.00000e-02  -1.00000e-01  -1.00000e-01  -1.10000e-01  -1.50000e-01  -1.60000e-01  -1.90000e-01  -1.90000e-01  -1.90000e-01  -2.20000e-01  -2.40000e-01  -2.60000e-01  -2.70000e-01  -2.80000e-01  -3.00000e-01  -3.20000e-01  -3.10000e-01  -3.20000e-01  -3.30000e-01  -3.50000e-01  -3.50000e-01  -3.70000e-01  -3.70000e-01  -3.60000e-01  -3.70000e-01  -3.70000e-01  -3.50000e-01  -3.50000e-01  -3.30000e-01  -3.30000e-01  -3.10000e-01  -3.10000e-01  -3.00000e-01  -2.80000e-01  -2.70000e-01  -2.60000e-01  -2.40000e-01  -2.20000e-01  -1.90000e-01  -1.90000e-01  -1.80000e-01  -1.60000e-01  -1.50000e-01  -1.10000e-01  -1.00000e-01  -1.00000e-01  -8.00000e-02  -8.00000e-02  -7.00000e-02 
 -8.00000e-02  -7.00000e-02  -8.00000e-02  -1.10000e-01  -1.20000e-01  -1.40000e-01  -1.60000e-01  -1.70000e-01  -1.70000e-01  -2.00000e-01  -2.10000e-01  -2.30000e-01  -2.50000e-01  -2.60000e-01  -2.90000e-01  -3.20000e-01  -3.20000e-01  -3.20000e-01  -3.50000e-01  -3.40000e-01  -3.50000e-01  -3.70000e-01  -3.60000e-01  -3.60000e-01  -3.80000e-01  -3.80000e-01  -3.80000e-01  -3.60000e-01  -3.60000e-01  -3.60000e-01  -3.50000e-01  -3.50000e-01  -3.50000e-01  -3.20000e-01  -3.20000e-01  -3.20000e-01  -2.90000e-01  -2.70000e-01  -2.50000e-01  -2.30000e-01  -2.10000e-01  -2.10000e-01  -1.70000e-01  -1.70000e-01  -1.60000e-01  -1.40000e-01  -1.20000e-01  -1.10000e-01  -8.00000e-02  -7.00000e-02  -9.00000e-02 
 -9.00000e-02  -8.00000e-02  -8.00000e-02  -1.10000e-01  -1.30000e-01  -1.50000e-01  -1.50000e-01  -1.80000e-01  -2.00000e-01  -2.20000e-01  -2.20000e-01  -2.40000e-01  -2.60000e-01  -2.90000e-01  -3.10000e-01  -3.00000e-01  -3.10000e-01  -3.50000e-01  -3.50000e-01  -3.50000e-01  -3.80000e-01  -3.70000e-01  -3.90000e-01  -3.80000e-01  -4.00000e-01  -4.00000e-01  -4.00000e-01  -3.80000e-01  -3.90000e-01  -3.70000e-01  -3.80000e-01  -3.50000e-01  -3.50000e-01  -3.40000e-01  -3.10000e-01  -3.00000e-01  -3.00000e-01  -2.80000e-01  -2.50000e-01  -2.30000e-01  -2.20000e-01  -2.20000e-01  -2.00000e-01  -1.90000e-01  -1.50000e-01  -1.50000e-01  -1.30000e-01  -9.00000e-02  -9.00000e-02  -8.00000e-02  -9.00000e-02 
 -9.00000e-02  -9.00000e-02  -1.00000e-01  -1.10000e-01  -1.40000e-01  -1.50000e-01  -1.70000e-01  -1.80000e-01  -1.90000e-01  -2.20000e-01  -2.30000e-01  -2.40000e-01  -2.80000e-01  -2.80000e-01  -3.00000e-01  -3.20000e-01  -3.20000e-01  -3.50000e-01  -3.50000e-01  -3.70000e-01  -3.80000e-01  -3.90000e-01  -3.80000e-01  -4.00000e-01  -4.00000e-01  -3.90000e-01  -4.00000e-01  -4.00000e-01  -3.80000e-01  -3.90000e-01  -3.80000e-01  -3.70000e-01  -3.50000e-01  -3.50000e-01  -3.20000e-01  -3.20000e-01  -3.00000e-01  -2.80000e-01  -2.80000e-01  -2.40000e-01  -2.30000e-01  -2.20000e-01  -1.90000e-01  -1.80000e-01  -1.70000e-01  -1.50000e-01  -1.40000e-01  -1.10000e-01  -1.00000e-01  -9.00000e-02  -9.00000e-02 
 -8.00000e-02  -9.00000e-02  -1.20000e-01  -1.20000e-01  -1.40000e-01  -1.50000e-01  -1.70000e-01  -1.90000e-01  -2.10000e-01  -2.20000e-01  -2.40000e-01  -2.50000e-01  -2.90000e-01  -3.00000e-01  -3.00000e-01  -3.40000e-01  -3.30000e-01  -3.50000e-01  -3.80000e-01  -3.90000e-01  -3.70000e-01  -3.80000e-01  -4.00000e-01  -4.00000e-01  -3.90000e-01  -4.00000e-01  -3.90000e-01  -4.00000e-01  -4.00000e-01  -3.80000e-01  -3.70000e-01  -3.90000e-01  -3.90000e-01  -3.50000e-01  -3.30000e-01  -3.30000e-01  -3.10000e-01  -3.00000e-01  -2.80000e-01  -2.50000e-01  -2.40000e-01  -2.20000e-01  -2.10000e-01  -1.90000e-01  -1.60000e-01  -1.50000e-01  -1.40000e-01  -1.20000e-01  -1.20000e-01  -9.00000e-02  -8.00000e-02 
 -8.00000e-02  -1.00000e-01  -1.20000e-01  -1.30000e-01  -1.50000e-01  -1.70000e-01  -1.90000e-01  -1.70000e-01  -2.10000e-01  -2.30000e-01  -2.60000e-01  -2.70000e-01  -2.90000e-01  -3.00000e-01  -3.10000e-01  -3.20000e-01  -3.60000e-01  -3.70000e-01  -3.70000e-01  -3.90000e-01  -3.80000e-01  -4.10000e-01  -3.90000e-01  -4.00000e-01  -4.20000e-01  -4.20000e-01  -4.20000e-01  -4.00000e-01  -3.90000e-01  -4.00000e-01  -3.80000e-01  -3.90000e-01  -3.70000e-01  -3.70000e-01  -3.50000e-01  -3.20000e-01  -3.10000e-01  -3.00000e-01  -2.90000e-01  -2.70000e-01  -2.60000e-01  -2.30000e-01  -2.10000e-01  -1.70000e-01  -1.90000e-01  -1.70000e-01  -1.50000e-01  -1.30000e-01  -1.20000e-01  -1.00000e-01  -8.00000e-02 
 -6.00000e-02  -1.00000e-01  -1.30000e-01  -1.30000e-01  -1.40000e-01  -1.60000e-01  -1.70000e-01  -1.80000e-01  -2.00000e-01  -2.30000e-01  -2.50000e-01  -2.80000e-01  -2.80000e-01  -3.10000e-01  -3.20000e-01  -3.40000e-01  -3.50000e-01  -3.60000e-01  -3.90000e-01  -3.80000e-01  -4.00000e-01  -3.90000e-01  -4.10000e-01  -4.20000e-01  -4.20000e-01  -4.20000e-01  -4.20000e-01  -4.20000e-01  -4.10000e-01  -3.90000e-01  -4.00000e-01  -3.80000e-01  -3.90000e-01  -3.60000e-01  -3.50000e-01  -3.40000e-01  -3.20000e-01  -3.10000e-01  -2.80000e-01  -2.80000e-01  -2.50000e-01  -2.30000e-01  -2.00000e-01  -1.80000e-01  -1.70000e-01  -1.60000e-01  -1.40000e-01  -1.30000e-01  -1.30000e-01  -1.00000e-01  -6.00000e-02 
 -6.00000e-02  -9.00000e-02  -1.10000e-01  -1.30000e-01  -1.40000e-01  -1.40000e-01  -1.80000e-01  -1.90000e-01  -2.20000e-01  -2.30000e-01  -2.60000e-01  -2.70000e-01  -3.00000e-01  -3.20000e-01  -3.30000e-01  -3.30000e-01  -3.80000e-01  -3.70000e-01  -3.80000e-01  -4.00000e-01  -4.00000e-01  -4.00000e-01  -4.20000e-01  -4.30000e-01  -4.10000e-01  -4.10000e-01  -4.10000e-01  -4.30000e-01  -4.20000e-01  -4.00000e-01  -4.00000e-01  -4.00000e-01  -3.80000e-01  -3.70000e-01  -3.80000e-01  -3.30000e-01  -3.30000e-01  -3.20000e-01  -3.00000e-01  -2.60000e-01  -2.60000e-01  -2.30000e-01  -2.20000e-01  -1.90000e-01  -1.80000e-01  -1.40000e-01  -1.40000e-01  -1.30000e-01  -1.10000e-01  -9.00000e-02  -6.00000e-02 
 -6.00000e-02  -9.00000e-02  -1.10000e-01  -1.30000e-01  -1.60000e-01  -1.60000e-01  -1.80000e-01  -2.00000e-01  -2.20000e-01  -2.40000e-01  -2.60000e-01  -2.70000e-01  -3.10000e-01  -3.10000e-01  -3.30000e-01  -3.50000e-01  -3.70000e-01  -3.80000e-01  -4.00000e-01  -4.00000e-01  -3.90000e-01  -4.20000e-01  -4.20000e-01  -4.10000e-01  -4.20000e-01  -4.10000e-01  -4.20000e-01  -4.10000e-01  -4.20000e-01  -4.20000e-01  -3.90000e-01  -4.00000e-01  -4.00000e-01  -3.80000e-01  -3.70000e-01  -3.50000e-01  -3.30000e-01  -3.10000e-01  -3.10000e-01  -2.70000e-01  -2.60000e-01  -2.40000e-01  -2.20000e-01  -2.00000e-01  -1.80000e-01  -1.60000e-01  -1.60000e-01  -1.30000e-01  -1.10000e-01  -9.00000e-02  -6.00000e-02 
 -7.00000e-02  -9.00000e-02  -1.10000e-01  -1.30000e-01  -1.50000e-01  -1.60000e-01  -1.80000e-01  -2.10000e-01  -2.10000e-01  -2.30000e-01  -2.60000e-01  -2.70000e-01  -3.00000e-01  -3.10000e-01  -3.30000e-01  -3.50000e-01  -3.60000e-01  -3.70000e-01  -4.00000e-01  -3.90000e-01  -4.00000e-01  -4.20000e-01  -4.20000e-01  -4.10000e-01  -4.10000e-01  -4.20000e-01  -4.10000e-01  -4.10000e-01  -4.20000e-01  -4.20000e-01  -4.00000e-01  -3.90000e-01  -4.00000e-01  -3.70000e-01  -3.60000e-01  -3.50000e-01  -3.30000e-01  -3.10000e-01  -3.00000e-01  -2.70000e-01  -2.60000e-01  -2.30000e-01  -2.10000e-01  -2.10000e-01  -1.80000e-01  -1.60000e-01  -1.50000e-01  -1.30000e-01  -1.10000e-01  -9.00000e-02  -7.00000e-02 
 -6.00000e-02  -9.00000e-02  -1.10000e-01  -1.30000e-01  -1.60000e-01  -1.60000e-01  -1.80000e-01  -2.00000e-01  -2.20000e-01  -2.40000e-01  -2.60000e-01  -2.70000e-01  -3.10000e-01  -3.10000e-01  -3.30000e-01  -3.50000e-01  -3.70000e-01  -3.80000e-01  -4.00000e-01  -4.00000e-01  -3.90000e-01  -4.20000e-01  -4.20000e-01  -4.10000e-01  -4.20000e-01  -4.10000e-01  -4.20000e-01  -4.10000e-01  -4.20000e-01  -4.20000e-01  -3.90000e-01  -4.00000e-01  -4.00000e-01  -3.80000e-01  -3.70000e-01  -3.50000e-01  -3.30000e-01  -3.10000e-01  -3.10000e-01  -2.70000e-01  -2.60000e-01  -2.40000e-01  -2.20000e-01  -2.00000e-01  -1.80000e-01  -1.60000e-01  -1.60000e-01  -1.30000e-01  -1.10000e-01  -9.00000e-02  -6.00000e-02 
 -6.00000e-02  -9.00000e-02  -1.10000e-01  -1.30000e-01  -1.40000e-01  -1.40000e-01  -1.80000e-01  -1.90000e-01  -2.20000e-01  -2.30000e-01  -2.60000e-01  -2.60000e-01  -3.00000e-01  -3.20000e-01  -3.30000e-01  -3.30000e-01  -3.80000e-01  -3.70000e-01  -3.80000e-01  -4.00000e-01  -4.00000e-01  -4.00000e-01  -4.20000e-01  -4.30000e-01  -4.10000e-01  -4.10000e-01  -4.10000e-01  -4.30000e-01  -4.20000e-01  -4.00000e-01  -4.00000e-01  -4.00000e-01  -3.80000e-01  -3.70000e-01  -3.80000e-01  -3.30000e-01  -3.30000e-01  -3.20000e-01  -3.00000e-01  -2.70000e-01  -2.60000e-01  -2.30000e-01  -2.20000e-01  -1.90000e-01  -1.80000e-01  -1.40000e-01  -1.40000e-01  -1.30000e-01  -1.10000e-01  -9.00000e-02  -6.00000e-02 
 -6.00000e-02  -1.00000e-01  -1.30000e-01  -1.30000e-01  -1.40000e-01  -1.60000e-01  -1.70000e-01  -1.80000e-01  -2.00000e-01  -2.30000e-01  -2.50000e-01  -2.80000e-01  -2.80000e-01  -3.10000e-01  -3.20000e-01  -3.40000e-01  -3.50000e-01  -3.60000e-01  -3.90000e-01  -3.80000e-01  -4.00000e-01  -3.90000e-01  -4.10000e-01  -4.20000e-01  -4.20000e-01  -4.20000e-01  -4.20000e-01  -4.20000e-01  -4.10000e-01  -3.90000e-01  -4.00000e-01  -3.80000e-01  -3.90000e-01  -3.60000e-01  -3.50000e-01  -3.40000e-01  -3.20000e-01  -3.10000e-01  -2.80000e-01  -2.80000e-01  -2.50000e-01  -2.30000e-01  -2.00000e-01  -1.80000e-01  -1.70000e-01  -1.60000e-01  -1.40000e-01  -1.30000e-01  -1.30000e-01  -1.00000e-01  -6.00000e-02 
 -8.00000e-02  -1.00000e-01  -1.20000e-01  -1.30000e-01  -1.50000e-01  -1.70000e-01  -1.90000e-01  -1.70000e-01  -2.10000e-01  -2.30000e-01  -2.60000e-01  -2.70000e-01  -2.90000e-01  -3.00000e-01  -3.10000e-01  -3.20000e-01  -3.50000e-01  -3.70000e-01  -3.70000e-01  -3.90000e-01  -3.80000e-01  -4.00000e-01  -3.90000e-01  -4.00000e-01  -4.20000e-01  -4.20000e-01  -4.20000e-01  -4.00000e-01  -3.90000e-01  -4.10000e-01  -3.80000e-01  -3.90000e-01  -3.70000e-01  -3.70000e-01  -3.60000e-01  -3.20000e-01  -3.10000e-01  -3.00000e-01  -2.90000e-01  -2.70000e-01  -2.60000e-01  -2.30000e-01  -2.10000e-01  -1.70000e-01  -1.90000e-01  -1.70000e-01  -1.50000e-01  -1.30000e-01  -1.20000e-01  -1.00000e-01  -8.00000e-02 
 -8.00000e-02  -9.00000e-02  -1.20000e-01  -1.20000e-01  -1.40000e-01  -1.50000e-01  -1.60000e-01  -1.90000e-01  -2.10000e-01  -2.20000e-01  -2.40000e-01  -2.50000e-01  -2.80000e-01  -3.00000e-01  -3.10000e-01  -3.30000e-01  -3.30000e-01  -3.50000e-01  -3.90000e-01  -3.90000e-01  -3.70000e-01  -3.80000e-01  -4.00000e-01  -4.00000e-01  -3.90000e-01  -4.00000e-01  -3.90000e-01  -4.00000e-01  -4.00000e-01  -3.80000e-01  -3.70000e-01  -3.90000e-01  -3.80000e-01  -3.50000e-01  -3.30000e-01  -3.40000e-01  -3.00000e-01  -3.00000e-01  -2.90000e-01  -2.50000e-01  -2.40000e-01  -2.20000e-01  -2.10000e-01  -1.90000e-01  -1.70000e-01  -1.50000e-01  -1.40000e-01  -1.20000e-01  -1.20000e-01  -9.00000e-02  -8.00000e-02 
 -9.00000e-02  -9.00000e-02  -1.00000e-01  -1.10000e-01  -1.40000e-01  -1.50000e-01  -1.70000e-01  -1.80000e-01  -1.90000e-01  -2.20000e-01  -2.30000e-01  -2.40000e-01  -2.80000e-01  -2.80000e-01  -3.00000e-01  -3.20000e-01  -3.20000e-01  -3.50000e-01  -3.50000e-01  -3.70000e-01  -3.80000e-01  -3.90000e-01  -3.80000e-01  -4.00000e-01  -4.00000e-01  -3.90000e-01  -4.00000e-01  -4.00000e-01  -3.80000e-01  -3.90000e-01  -3.80000e-01  -3.70000e-01  -3.50000e-01  -3.50000e-01  -3.20000e-01  -3.20000e-01  -3.00000e-01  -2.80000e-01  -2.80000e-01  -2.40000e-01  -2.30000e-01  -2.20000e-01  -1.90000e-01  -1.80000e-01  -1.70000e-01  -1.50000e-01  -1.40000e-01  -1.10000e-01  -1.00000e-01  -9.00000e-02  -9.00000e-02 
 -9.00000e-02  -8.00000e-02  -9.00000e-02  -9.00000e-02  -1.30000e-01  -1.50000e-01  -1.50000e-01  -1.90000e-01  -2.00000e-01  -2.20000e-01  -2.20000e-01  -2.30000e-01  -2.50000e-01  -2.80000e-01  -3.00000e-01  -3.00000e-01  -3.10000e-01  -3.40000e-01  -3.50000e-01  -3.50000e-01  -3.80000e-01  -3.70000e-01  -3.90000e-01  -3.80000e-01  -4.00000e-01  -4.00000e-01  -4.00000e-01  -3.80000e-01  -3.90000e-01  -3.70000e-01  -3.80000e-01  -3.50000e-01  -3.50000e-01  -3.50000e-01  -3.10000e-01  -3.00000e-01  -3.10000e-01  -2.90000e-01  -2.60000e-01  -2.40000e-01  -2.20000e-01  -2.20000e-01  -2.00000e-01  -1.80000e-01  -1.50000e-01  -1.50000e-01  -1.30000e-01  -1.10000e-01  -8.00000e-02  -8.00000e-02  -9.00000e-02 
 -9.00000e-02  -7.00000e-02  -8.00000e-02  -1.10000e-01  -1.20000e-01  -1.40000e-01  -1.60000e-01  -1.70000e-01  -1.70000e-01  -2.10000e-01  -2.10000e-01  -2.30000e-01  -2.50000e-01  -2.70000e-01  -2.90000e-01  -3.20000e-01  -3.20000e-01  -3.20000e-01  -3.50000e-01  -3.50000e-01  -3.50000e-01  -3.60000e-01  -3.60000e-01  -3.60000e-01  -3.80000e-01  -3.80000e-01  -3.80000e-01  -3.60000e-01  -3.60000e-01  -3.70000e-01  -3.50000e-01  -3.40000e-01  -3.50000e-01  -3.20000e-01  -3.20000e-01  -3.20000e-01  -2.90000e-01  -2.60000e-01  -2.50000e-01  -2.30000e-01  -2.10000e-01  -2.00000e-01  -1.70000e-01  -1.70000e-01  -1.60000e-01  -1.40000e-01  -1.20000e-01  -1.10000e-01  -8.00000e-02  -7.00000e-02  -8.00000e-02 
 -7.00000e-02  -8.00000e-02  -8.00000e-02  -1.00000e-01  -1.00000e-01  -1.10000e-01  -1.50000e-01  -1.60000e-01  -1.80000e-01  -1.90000e-01  -1.90000e-01  -2.20000e-01  -2.40000e-01  -2.60000e-01  -2.70000e-01  -2.80000e-01  -3.00000e-01  -3.10000e-01  -3.10000e-01  -3.30000e-01  -3.30000e-01  -3.50000e-01  -3.50000e-01  -3.70000e-01  -3.70000e-01  -3.60000e-01  -3.70000e-01  -3.70000e-01  -3.50000e-01  -3.50000e-01  -3.30000e-01  -3.20000e-01  -3.10000e-01  -3.20000e-01  -3.00000e-01  -2.80000e-01  -2.70000e-01  -2.60000e-01  -2.40000e-01  -2.20000e-01  -1.90000e-01  -1.90000e-01  -1.90000e-01  -1.60000e-01  -1.50000e-01  -1.10000e-01  -1.00000e-01  -1.00000e-01  -8.00000e-02  -9.00000e-02  -7.00000e-02 
 -7.00000e-02  -8.00000e-02  -7.00000e-02  -1.00000e-01  -9.00000e-02  -1.20000e-01  -1.20000e-01  -1.40000e-01  -1.60000e-01  -1.80000e-01  -1.90000e-01  -2.10000e-01  -2.40000e-01  -2.50000e-01  -2.70000e-01  -2.70000e-01  -2.80000e-01  -3.10000e-01  -3.00000e-01  -3.10000e-01  -3.40000e-01  -3.20000e-01  -3.40000e-01  -3.30000e-01  -3.50000e-01  -3.40000e-01  -3.50000e-01  -3.30000e-01  -3.40000e-01  -3.20000e-01  -3.40000e-01  -3.20000e-01  -3.00000e-01  -3.10000e-01  -2.80000e-01  -2.70000e-01  -2.60000e-01  -2.50000e-01  -2.40000e-01  -2.10000e-01  -1.90000e-01  -1.80000e-01  -1.60000e-01  -1.40000e-01  -1.20000e-01  -1.20000e-01  -9.00000e-02  -9.00000e-02  -7.00000e-02  -8.00000e-02  -7.00000e-02 
 -7.00000e-02  -7.00000e-02  -9.00000e-02  -9.00000e-02  -1.00000e-01  -1.10000e-01  -1.20000e-01  -1.40000e-01  -1.60000e-01  -1.70000e-01  -1.80000e-01  -2.10000e-01  -2.20000e-01  -2.30000e-01  -2.40000e-01  -2.60000e-01  -2.70000e-01  -2.80000e-01  -3.10000e-01  -3.00000e-01  -3.00000e-01  -3.20000e-01  -3.20000e-01  -3.30000e-01  -3.30000e-01  -3.30000e-01  -3.30000e-01  -3.30000e-01  -3.20000e-01  -3.20000e-01  -3.00000e-01  -3.00000e-01  -3.10000e-01  -2.80000e-01  -2.70000e-01  -2.60000e-01  -2.40000e-01  -2.30000e-01  -2.20000e-01  -2.10000e-01  -1.80000e-01  -1.70000e-01  -1.60000e-01  -1.40000e-01  -1.30000e-01  -1.10000e-01  -1.00000e-01  -9.00000e-02  -9.00000e-02  -8.00000e-02  -7.00000e-02 
 -6.00000e-02  -6.00000e-02  -9.00000e-02  -7.00000e-02  -1.00000e-01  -1.10000e-01  -1.30000e-01  -1.30000e-01  -1.50000e-01  -1.70000e-01  -1.70000e-01  -2.00000e-01  -2.10000e-01  -2.00000e-01  -2.10000e-01  -2.50000e-01  -2.60000e-01  -2.70000e-01  -2.90000e-01  -2.80000e-01  -3.00000e-01  -3.00000e-01  -3.10000e-01  -3.20000e-01  -3.20000e-01  -3.10000e-01  -3.20000e-01  -3.20000e-01  -3.10000e-01  -3.00000e-01  -3.00000e-01  -2.80000e-01  -2.90000e-01  -2.70000e-01  -2.50000e-01  -2.40000e-01  -2.20000e-01  -2.10000e-01  -2.10000e-01  -2.00000e-01  -1.70000e-01  -1.70000e-01  -1.50000e-01  -1.30000e-01  -1.30000e-01  -1.10000e-01  -1.00000e-01  -7.00000e-02  -9.00000e-02  -6.00000e-02  -6.00000e-02 
 -6.00000e-02  -6.00000e-02  -7.00000e-02  -9.00000e-02  -9.00000e-02  -1.10000e-01  -1.00000e-01  -1.30000e-01  -1.50000e-01  -1.50000e-01  -1.70000e-01  -1.90000e-01  -1.90000e-01  -2.20000e-01  -2.10000e-01  -2.30000e-01  -2.60000e-01  -2.50000e-01  -2.50000e-01  -2.80000e-01  -2.80000e-01  -2.80000e-01  -2.80000e-01  -3.00000e-01  -2.90000e-01  -2.90000e-01  -2.90000e-01  -3.00000e-01  -2.80000e-01  -2.80000e-01  -2.80000e-01  -2.80000e-01  -2.50000e-01  -2.50000e-01  -2.60000e-01  -2.30000e-01  -2.00000e-01  -2.20000e-01  -1.90000e-01  -1.90000e-01  -1.70000e-01  -1.50000e-01  -1.50000e-01  -1.30000e-01  -1.00000e-01  -1.10000e-01  -9.00000e-02  -9.00000e-02  -7.00000e-02  -6.00000e-02  -6.00000e-02 
 -6.00000e-02  -6.00000e-02  -6.00000e-02  -8.00000e-02  -8.00000e-02  -9.00000e-02  -1.00000e-01  -1.00000e-01  -1.30000e-01  -1.40000e-01  -1.40000e-01  -1.50000e-01  -1.90000e-01  -1.80000e-01  -2.10000e-01  -2.00000e-01  -2.30000e-01  -2.30000e-01  -2.40000e-01  -2.40000e-01  -2.60000e-01  -2.70000e-01  -2.80000e-01  -2.60000e-01  -2.80000e-01  -2.80000e-01  -2.80000e-01  -2.60000e-01  -2.80000e-01  -2.70000e-01  -2.60000e-01  -2.40000e-01  -2.40000e-01  -2.30000e-01  -2.30000e-01  -2.00000e-01  -2.10000e-01  -1.80000e-01  -1.90000e-01  -1.60000e-01  -1.40000e-01  -1.40000e-01  -1.20000e-01  -1.10000e-01  -1.00000e-01  -9.00000e-02  -8.00000e-02  -8.00000e-02  -6.00000e-02  -6.00000e-02  -5.00000e-02 
 -6.00000e-02  -5.00000e-02  -7.00000e-02  -7.00000e-02  -8.00000e-02  -7.00000e-02  -9.00000e-02  -1.10000e-01  -1.00000e-01  -1.20000e-01  -1.30000e-01  -1.40000e-01  -1.50000e-01  -1.80000e-01  -1.90000e-01  -1.90000e-01  -1.90000e-01  -2.10000e-01  -2.20000e-01  -2.30000e-01  -2.40000e-01  -2.50000e-01  -2.40000e-01  -2.60000e-01  -2.60000e-01  -2.60000e-01  -2.60000e-01  -2.60000e-01  -2.40000e-01  -2.50000e-01  -2.40000e-01  -2.30000e-01  -2.20000e-01  -2.10000e-01  -1.90000e-01  -1.90000e-01  -1.90000e-01  -1.80000e-01  -1.50000e-01  -1.40000e-01  -1.30000e-01  -1.20000e-01  -1.10000e-01  -1.10000e-01  -8.00000e-02  -7.00000e-02  -9.00000e-02  -6.00000e-02  -7.00000e-02  -5.00000e-02  -6.00000e-02 