# vtk DataFile Version 3.0
BencenoPI_ZZ vkfile_converted
ASCII
DATASET STRUCTURED_POINTS
DIMENSIONS 51 51 51
ORIGIN -5 -5 -5
SPACING 0.199999895373305 0.199999895373305 0.199999895373305
POINT_DATA 132651
SCALARS scalars float 1
LOOKUP_TABLE default
 0.00000e+00  0.00000e+00  -1.00000e-02  -1.00000e-02  -2.00000e-02  -3.00000e-02  -3.00000e-02  -3.00000e-02  -3.00000e-02  -4.00000e-02  -5.00000e-02  -6.00000e-02  -7.00000e-02  -7.00000e-02  -8.00000e-02  -9.00000e-02  -9.00000e-02  -9.00000e-02  -1.00000e-01  -1.00000e-01  -1.10000e-01  -1.20000e-01  -1.20000e-01  -1.20000e-01  -1.20000e-01  -1.20000e-01  -1.20000e-01  -1.20000e-01  -1.20000e-01  -1.20000e-01  -1.10000e-01  -1.00000e-01  -1.00000e-01  -9.00000e-02  -9.00000e-02  -9.00000e-02  -8.00000e-02  -7.00000e-02  -7.00000e-02  -6.00000e-02  -5.00000e-02  -4.00000e-02  -3.00000e-02  -3.00000e-02  -3.00000e-02  -3.00000e-02  -2.00000e-02  -1.00000e-02  -1.00000e-02  0.00000e+00  0.00000e+00 
 0.00000e+00  0.00000e+00  -1.00000e-02  -2.00000e-02  -2.00000e-02  -3.00000e-02  -3.00000e-02  -4.00000e-02  -4.00000e-02  -6.00000e-02  -7.00000e-02  -7.00000e-02  -7.00000e-02  -9.00000e-02  -9.00000e-02  -1.00000e-01  -1.00000e-01  -1.20000e-01  -1.20000e-01  -1.30000e-01  -1.30000e-01  -1.40000e-01  -1.40000e-01  -1.40000e-01  -1.40000e-01  -1.50000e-01  -1.40000e-01  -1.40000e-01  -1.40000e-01  -1.40000e-01  -1.30000e-01  -1.30000e-01  -1.20000e-01  -1.20000e-01  -1.00000e-01  -1.00000e-01  -9.00000e-02  -9.00000e-02  -7.00000e-02  -7.00000e-02  -7.00000e-02  -6.00000e-02  -4.00000e-02  -4.00000e-02  -3.00000e-02  -3.00000e-02  -2.00000e-02  -2.00000e-02  -1.00000e-02  0.00000e+00  0.00000e+00 
 -1.00000e-02  -1.00000e-02  -3.00000e-02  -3.00000e-02  -3.00000e-02  -4.00000e-02  -3.00000e-02  -5.00000e-02  -6.00000e-02  -6.00000e-02  -7.00000e-02  -9.00000e-02  -9.00000e-02  -1.00000e-01  -1.10000e-01  -1.20000e-01  -1.30000e-01  -1.40000e-01  -1.40000e-01  -1.60000e-01  -1.60000e-01  -1.70000e-01  -1.70000e-01  -1.70000e-01  -1.70000e-01  -1.70000e-01  -1.70000e-01  -1.70000e-01  -1.70000e-01  -1.70000e-01  -1.60000e-01  -1.60000e-01  -1.40000e-01  -1.40000e-01  -1.30000e-01  -1.20000e-01  -1.10000e-01  -1.00000e-01  -9.00000e-02  -9.00000e-02  -7.00000e-02  -6.00000e-02  -6.00000e-02  -5.00000e-02  -3.00000e-02  -4.00000e-02  -3.00000e-02  -3.00000e-02  -3.00000e-02  -1.00000e-02  -1.00000e-02 
 -1.00000e-02  -2.00000e-02  -3.00000e-02  -3.00000e-02  -3.00000e-02  -4.00000e-02  -6.00000e-02  -6.00000e-02  -7.00000e-02  -8.00000e-02  -9.00000e-02  -1.00000e-01  -1.10000e-01  -1.20000e-01  -1.30000e-01  -1.40000e-01  -1.60000e-01  -1.60000e-01  -1.70000e-01  -1.90000e-01  -1.90000e-01  -1.90000e-01  -2.00000e-01  -2.00000e-01  -2.00000e-01  -2.00000e-01  -2.00000e-01  -2.00000e-01  -2.00000e-01  -1.90000e-01  -1.90000e-01  -1.90000e-01  -1.70000e-01  -1.60000e-01  -1.60000e-01  -1.40000e-01  -1.30000e-01  -1.20000e-01  -1.10000e-01  -1.00000e-01  -9.00000e-02  -8.00000e-02  -7.00000e-02  -6.00000e-02  -6.00000e-02  -4.00000e-02  -3.00000e-02  -3.00000e-02  -3.00000e-02  -2.00000e-02  -1.00000e-02 
 -2.00000e-02  -3.00000e-02  -3.00000e-02  -4.00000e-02  -4.00000e-02  -6.00000e-02  -7.00000e-02  -7.00000e-02  -9.00000e-02  -1.00000e-01  -1.10000e-01  -1.20000e-01  -1.30000e-01  -1.40000e-01  -1.60000e-01  -1.70000e-01  -1.70000e-01  -1.90000e-01  -2.00000e-01  -2.00000e-01  -2.20000e-01  -2.30000e-01  -2.30000e-01  -2.30000e-01  -2.30000e-01  -2.30000e-01  -2.30000e-01  -2.30000e-01  -2.30000e-01  -2.30000e-01  -2.20000e-01  -2.00000e-01  -2.00000e-01  -1.90000e-01  -1.70000e-01  -1.70000e-01  -1.60000e-01  -1.40000e-01  -1.30000e-01  -1.20000e-01  -1.10000e-01  -1.00000e-01  -9.00000e-02  -7.00000e-02  -7.00000e-02  -6.00000e-02  -4.00000e-02  -4.00000e-02  -3.00000e-02  -3.00000e-02  -2.00000e-02 
 -3.00000e-02  -3.00000e-02  -3.00000e-02  -4.00000e-02  -6.00000e-02  -6.00000e-02  -7.00000e-02  -8.00000e-02  -9.00000e-02  -1.00000e-01  -1.20000e-01  -1.40000e-01  -1.60000e-01  -1.70000e-01  -1.70000e-01  -1.90000e-01  -2.00000e-01  -2.20000e-01  -2.30000e-01  -2.30000e-01  -2.50000e-01  -2.60000e-01  -2.60000e-01  -2.60000e-01  -2.70000e-01  -2.70000e-01  -2.70000e-01  -2.60000e-01  -2.60000e-01  -2.60000e-01  -2.50000e-01  -2.30000e-01  -2.30000e-01  -2.20000e-01  -2.00000e-01  -1.90000e-01  -1.70000e-01  -1.70000e-01  -1.60000e-01  -1.40000e-01  -1.20000e-01  -1.00000e-01  -9.00000e-02  -8.00000e-02  -7.00000e-02  -6.00000e-02  -6.00000e-02  -4.00000e-02  -3.00000e-02  -3.00000e-02  -3.00000e-02 
 -2.00000e-02  -3.00000e-02  -4.00000e-02  -6.00000e-02  -7.00000e-02  -7.00000e-02  -9.00000e-02  -1.00000e-01  -1.00000e-01  -1.20000e-01  -1.30000e-01  -1.60000e-01  -1.70000e-01  -1.90000e-01  -2.00000e-01  -2.20000e-01  -2.30000e-01  -2.50000e-01  -2.60000e-01  -2.80000e-01  -2.80000e-01  -2.90000e-01  -2.90000e-01  -3.20000e-01  -3.20000e-01  -3.20000e-01  -3.20000e-01  -3.20000e-01  -2.90000e-01  -2.90000e-01  -2.80000e-01  -2.80000e-01  -2.60000e-01  -2.50000e-01  -2.30000e-01  -2.20000e-01  -2.00000e-01  -1.90000e-01  -1.70000e-01  -1.60000e-01  -1.30000e-01  -1.20000e-01  -1.00000e-01  -1.00000e-01  -9.00000e-02  -7.00000e-02  -7.00000e-02  -6.00000e-02  -4.00000e-02  -3.00000e-02  -2.00000e-02 
 -3.00000e-02  -4.00000e-02  -5.00000e-02  -6.00000e-02  -7.00000e-02  -9.00000e-02  -1.00000e-01  -1.10000e-01  -1.30000e-01  -1.40000e-01  -1.60000e-01  -1.90000e-01  -2.00000e-01  -2.20000e-01  -2.30000e-01  -2.50000e-01  -2.60000e-01  -2.90000e-01  -3.00000e-01  -3.20000e-01  -3.30000e-01  -3.40000e-01  -3.50000e-01  -3.50000e-01  -3.50000e-01  -3.50000e-01  -3.50000e-01  -3.50000e-01  -3.50000e-01  -3.40000e-01  -3.30000e-01  -3.20000e-01  -3.00000e-01  -2.90000e-01  -2.60000e-01  -2.50000e-01  -2.30000e-01  -2.20000e-01  -2.00000e-01  -1.90000e-01  -1.60000e-01  -1.40000e-01  -1.30000e-01  -1.10000e-01  -1.00000e-01  -9.00000e-02  -7.00000e-02  -6.00000e-02  -5.00000e-02  -4.00000e-02  -3.00000e-02 
 -3.00000e-02  -5.00000e-02  -6.00000e-02  -7.00000e-02  -9.00000e-02  -9.00000e-02  -1.10000e-01  -1.30000e-01  -1.40000e-01  -1.60000e-01  -1.80000e-01  -2.00000e-01  -2.20000e-01  -2.40000e-01  -2.60000e-01  -2.90000e-01  -3.00000e-01  -3.20000e-01  -3.40000e-01  -3.60000e-01  -3.80000e-01  -3.90000e-01  -3.90000e-01  -4.10000e-01  -4.10000e-01  -4.10000e-01  -4.10000e-01  -4.10000e-01  -3.90000e-01  -3.90000e-01  -3.80000e-01  -3.60000e-01  -3.40000e-01  -3.20000e-01  -3.00000e-01  -2.90000e-01  -2.60000e-01  -2.40000e-01  -2.20000e-01  -2.00000e-01  -1.80000e-01  -1.60000e-01  -1.40000e-01  -1.30000e-01  -1.10000e-01  -9.00000e-02  -9.00000e-02  -7.00000e-02  -6.00000e-02  -5.00000e-02  -3.00000e-02 
 -4.00000e-02  -6.00000e-02  -6.00000e-02  -8.00000e-02  -1.00000e-01  -1.00000e-01  -1.20000e-01  -1.40000e-01  -1.60000e-01  -1.80000e-01  -2.00000e-01  -2.30000e-01  -2.50000e-01  -2.70000e-01  -2.90000e-01  -3.20000e-01  -3.50000e-01  -3.60000e-01  -3.80000e-01  -4.10000e-01  -4.20000e-01  -4.40000e-01  -4.50000e-01  -4.50000e-01  -4.50000e-01  -4.70000e-01  -4.50000e-01  -4.50000e-01  -4.50000e-01  -4.40000e-01  -4.20000e-01  -4.10000e-01  -3.80000e-01  -3.60000e-01  -3.50000e-01  -3.20000e-01  -2.90000e-01  -2.70000e-01  -2.50000e-01  -2.30000e-01  -2.00000e-01  -1.80000e-01  -1.60000e-01  -1.40000e-01  -1.20000e-01  -1.00000e-01  -1.00000e-01  -8.00000e-02  -6.00000e-02  -6.00000e-02  -4.00000e-02 
 -5.00000e-02  -7.00000e-02  -7.00000e-02  -9.00000e-02  -1.10000e-01  -1.20000e-01  -1.30000e-01  -1.60000e-01  -1.80000e-01  -2.00000e-01  -2.30000e-01  -2.50000e-01  -2.80000e-01  -3.10000e-01  -3.30000e-01  -3.60000e-01  -3.80000e-01  -4.10000e-01  -4.40000e-01  -4.60000e-01  -4.80000e-01  -4.90000e-01  -5.00000e-01  -5.20000e-01  -5.20000e-01  -5.20000e-01  -5.20000e-01  -5.20000e-01  -5.00000e-01  -4.90000e-01  -4.80000e-01  -4.60000e-01  -4.40000e-01  -4.10000e-01  -3.80000e-01  -3.60000e-01  -3.30000e-01  -3.10000e-01  -2.80000e-01  -2.50000e-01  -2.30000e-01  -2.00000e-01  -1.80000e-01  -1.60000e-01  -1.30000e-01  -1.20000e-01  -1.10000e-01  -9.00000e-02  -7.00000e-02  -7.00000e-02  -5.00000e-02 
 -6.00000e-02  -7.00000e-02  -9.00000e-02  -1.00000e-01  -1.20000e-01  -1.30000e-01  -1.50000e-01  -1.80000e-01  -2.00000e-01  -2.30000e-01  -2.50000e-01  -2.90000e-01  -3.10000e-01  -3.50000e-01  -3.70000e-01  -4.00000e-01  -4.20000e-01  -4.50000e-01  -4.80000e-01  -5.10000e-01  -5.30000e-01  -5.50000e-01  -5.70000e-01  -5.80000e-01  -5.80000e-01  -5.80000e-01  -5.80000e-01  -5.80000e-01  -5.70000e-01  -5.50000e-01  -5.30000e-01  -5.10000e-01  -4.80000e-01  -4.50000e-01  -4.20000e-01  -4.00000e-01  -3.70000e-01  -3.50000e-01  -3.10000e-01  -2.90000e-01  -2.50000e-01  -2.30000e-01  -2.00000e-01  -1.80000e-01  -1.50000e-01  -1.30000e-01  -1.20000e-01  -1.00000e-01  -9.00000e-02  -7.00000e-02  -6.00000e-02 
 -7.00000e-02  -7.00000e-02  -9.00000e-02  -1.10000e-01  -1.30000e-01  -1.60000e-01  -1.70000e-01  -2.00000e-01  -2.20000e-01  -2.50000e-01  -2.80000e-01  -3.10000e-01  -3.50000e-01  -3.70000e-01  -4.10000e-01  -4.50000e-01  -4.70000e-01  -5.10000e-01  -5.40000e-01  -5.70000e-01  -5.90000e-01  -6.10000e-01  -6.30000e-01  -6.40000e-01  -6.50000e-01  -6.50000e-01  -6.50000e-01  -6.40000e-01  -6.30000e-01  -6.10000e-01  -5.90000e-01  -5.70000e-01  -5.40000e-01  -5.10000e-01  -4.70000e-01  -4.50000e-01  -4.10000e-01  -3.70000e-01  -3.50000e-01  -3.10000e-01  -2.80000e-01  -2.50000e-01  -2.20000e-01  -2.00000e-01  -1.70000e-01  -1.60000e-01  -1.30000e-01  -1.10000e-01  -9.00000e-02  -7.00000e-02  -7.00000e-02 
 -7.00000e-02  -9.00000e-02  -1.00000e-01  -1.20000e-01  -1.40000e-01  -1.70000e-01  -1.90000e-01  -2.20000e-01  -2.40000e-01  -2.70000e-01  -3.10000e-01  -3.50000e-01  -3.70000e-01  -4.10000e-01  -4.50000e-01  -4.90000e-01  -5.20000e-01  -5.50000e-01  -6.00000e-01  -6.30000e-01  -6.40000e-01  -6.80000e-01  -7.00000e-01  -7.00000e-01  -7.30000e-01  -7.30000e-01  -7.30000e-01  -7.00000e-01  -7.00000e-01  -6.80000e-01  -6.40000e-01  -6.30000e-01  -6.00000e-01  -5.50000e-01  -5.20000e-01  -4.90000e-01  -4.50000e-01  -4.10000e-01  -3.70000e-01  -3.50000e-01  -3.10000e-01  -2.70000e-01  -2.40000e-01  -2.20000e-01  -1.90000e-01  -1.70000e-01  -1.40000e-01  -1.20000e-01  -1.00000e-01  -9.00000e-02  -7.00000e-02 
 -8.00000e-02  -9.00000e-02  -1.10000e-01  -1.30000e-01  -1.60000e-01  -1.70000e-01  -2.00000e-01  -2.30000e-01  -2.60000e-01  -2.90000e-01  -3.30000e-01  -3.70000e-01  -4.10000e-01  -4.50000e-01  -4.90000e-01  -5.40000e-01  -5.80000e-01  -6.10000e-01  -6.40000e-01  -6.80000e-01  -7.10000e-01  -7.30000e-01  -7.60000e-01  -7.70000e-01  -7.90000e-01  -7.90000e-01  -7.90000e-01  -7.70000e-01  -7.60000e-01  -7.30000e-01  -7.10000e-01  -6.80000e-01  -6.40000e-01  -6.10000e-01  -5.80000e-01  -5.40000e-01  -4.90000e-01  -4.50000e-01  -4.10000e-01  -3.70000e-01  -3.30000e-01  -2.90000e-01  -2.60000e-01  -2.30000e-01  -2.00000e-01  -1.70000e-01  -1.60000e-01  -1.30000e-01  -1.10000e-01  -9.00000e-02  -8.00000e-02 
 -9.00000e-02  -1.00000e-01  -1.20000e-01  -1.40000e-01  -1.70000e-01  -1.90000e-01  -2.20000e-01  -2.50000e-01  -2.90000e-01  -3.20000e-01  -3.60000e-01  -4.00000e-01  -4.50000e-01  -4.90000e-01  -5.40000e-01  -5.80000e-01  -6.20000e-01  -6.70000e-01  -7.10000e-01  -7.40000e-01  -7.70000e-01  -8.00000e-01  -8.30000e-01  -8.50000e-01  -8.50000e-01  -8.60000e-01  -8.50000e-01  -8.50000e-01  -8.30000e-01  -8.00000e-01  -7.70000e-01  -7.40000e-01  -7.10000e-01  -6.70000e-01  -6.20000e-01  -5.80000e-01  -5.40000e-01  -4.90000e-01  -4.50000e-01  -4.00000e-01  -3.60000e-01  -3.20000e-01  -2.90000e-01  -2.50000e-01  -2.20000e-01  -1.90000e-01  -1.70000e-01  -1.40000e-01  -1.20000e-01  -1.00000e-01  -9.00000e-02 
 -9.00000e-02  -1.00000e-01  -1.30000e-01  -1.60000e-01  -1.70000e-01  -2.00000e-01  -2.30000e-01  -2.60000e-01  -3.00000e-01  -3.50000e-01  -3.80000e-01  -4.20000e-01  -4.70000e-01  -5.10000e-01  -5.80000e-01  -6.20000e-01  -6.70000e-01  -7.20000e-01  -7.60000e-01  -8.00000e-01  -8.30000e-01  -8.70000e-01  -8.90000e-01  -9.20000e-01  -9.20000e-01  -9.30000e-01  -9.20000e-01  -9.20000e-01  -8.90000e-01  -8.70000e-01  -8.30000e-01  -8.00000e-01  -7.60000e-01  -7.20000e-01  -6.70000e-01  -6.20000e-01  -5.80000e-01  -5.10000e-01  -4.70000e-01  -4.20000e-01  -3.80000e-01  -3.50000e-01  -3.00000e-01  -2.60000e-01  -2.30000e-01  -2.00000e-01  -1.70000e-01  -1.60000e-01  -1.30000e-01  -1.00000e-01  -9.00000e-02 
 -9.00000e-02  -1.20000e-01  -1.40000e-01  -1.60000e-01  -1.90000e-01  -2.20000e-01  -2.50000e-01  -2.90000e-01  -3.20000e-01  -3.60000e-01  -4.10000e-01  -4.60000e-01  -5.10000e-01  -5.50000e-01  -6.00000e-01  -6.70000e-01  -7.20000e-01  -7.60000e-01  -8.20000e-01  -8.60000e-01  -9.00000e-01  -9.40000e-01  -9.60000e-01  -9.90000e-01  -1.00000e+00  -1.00000e+00  -1.00000e+00  -9.90000e-01  -9.60000e-01  -9.40000e-01  -9.00000e-01  -8.60000e-01  -8.20000e-01  -7.60000e-01  -7.20000e-01  -6.70000e-01  -6.00000e-01  -5.50000e-01  -5.10000e-01  -4.60000e-01  -4.10000e-01  -3.60000e-01  -3.20000e-01  -2.90000e-01  -2.50000e-01  -2.20000e-01  -1.90000e-01  -1.60000e-01  -1.40000e-01  -1.20000e-01  -9.00000e-02 
 -1.00000e-01  -1.20000e-01  -1.40000e-01  -1.70000e-01  -2.00000e-01  -2.30000e-01  -2.60000e-01  -3.00000e-01  -3.40000e-01  -3.80000e-01  -4.40000e-01  -4.80000e-01  -5.40000e-01  -6.00000e-01  -6.40000e-01  -7.10000e-01  -7.60000e-01  -8.10000e-01  -8.70000e-01  -9.20000e-01  -9.60000e-01  -1.00000e+00  -1.02000e+00  -1.04000e+00  -1.07000e+00  -1.07000e+00  -1.07000e+00  -1.04000e+00  -1.02000e+00  -1.00000e+00  -9.60000e-01  -9.20000e-01  -8.70000e-01  -8.10000e-01  -7.60000e-01  -7.10000e-01  -6.40000e-01  -6.00000e-01  -5.40000e-01  -4.80000e-01  -4.40000e-01  -3.80000e-01  -3.40000e-01  -3.00000e-01  -2.60000e-01  -2.30000e-01  -2.00000e-01  -1.70000e-01  -1.40000e-01  -1.20000e-01  -1.00000e-01 
 -1.00000e-01  -1.30000e-01  -1.60000e-01  -1.80000e-01  -2.00000e-01  -2.30000e-01  -2.80000e-01  -3.20000e-01  -3.60000e-01  -4.10000e-01  -4.60000e-01  -5.10000e-01  -5.70000e-01  -6.30000e-01  -6.80000e-01  -7.40000e-01  -8.00000e-01  -8.60000e-01  -9.20000e-01  -9.70000e-01  -1.01000e+00  -1.05000e+00  -1.08000e+00  -1.11000e+00  -1.13000e+00  -1.13000e+00  -1.13000e+00  -1.11000e+00  -1.08000e+00  -1.05000e+00  -1.01000e+00  -9.70000e-01  -9.20000e-01  -8.60000e-01  -8.00000e-01  -7.40000e-01  -6.80000e-01  -6.30000e-01  -5.70000e-01  -5.10000e-01  -4.60000e-01  -4.10000e-01  -3.60000e-01  -3.20000e-01  -2.80000e-01  -2.30000e-01  -2.00000e-01  -1.80000e-01  -1.60000e-01  -1.30000e-01  -1.00000e-01 
 -1.00000e-01  -1.30000e-01  -1.60000e-01  -1.90000e-01  -2.20000e-01  -2.50000e-01  -2.80000e-01  -3.20000e-01  -3.80000e-01  -4.20000e-01  -4.80000e-01  -5.30000e-01  -5.90000e-01  -6.40000e-01  -7.10000e-01  -7.70000e-01  -8.40000e-01  -9.00000e-01  -9.60000e-01  -1.01000e+00  -1.06000e+00  -1.10000e+00  -1.13000e+00  -1.16000e+00  -1.17000e+00  -1.18000e+00  -1.17000e+00  -1.16000e+00  -1.13000e+00  -1.10000e+00  -1.06000e+00  -1.01000e+00  -9.60000e-01  -9.00000e-01  -8.40000e-01  -7.70000e-01  -7.10000e-01  -6.40000e-01  -5.90000e-01  -5.30000e-01  -4.80000e-01  -4.20000e-01  -3.80000e-01  -3.20000e-01  -2.80000e-01  -2.50000e-01  -2.20000e-01  -1.90000e-01  -1.60000e-01  -1.30000e-01  -1.00000e-01 
 -1.20000e-01  -1.40000e-01  -1.60000e-01  -1.90000e-01  -2.20000e-01  -2.60000e-01  -3.00000e-01  -3.40000e-01  -3.80000e-01  -4.40000e-01  -4.90000e-01  -5.50000e-01  -6.10000e-01  -6.80000e-01  -7.30000e-01  -8.00000e-01  -8.70000e-01  -9.40000e-01  -1.00000e+00  -1.05000e+00  -1.10000e+00  -1.14000e+00  -1.19000e+00  -1.21000e+00  -1.22000e+00  -1.23000e+00  -1.22000e+00  -1.21000e+00  -1.19000e+00  -1.14000e+00  -1.10000e+00  -1.05000e+00  -1.00000e+00  -9.40000e-01  -8.70000e-01  -8.00000e-01  -7.30000e-01  -6.80000e-01  -6.10000e-01  -5.50000e-01  -4.90000e-01  -4.40000e-01  -3.80000e-01  -3.40000e-01  -3.00000e-01  -2.60000e-01  -2.20000e-01  -1.90000e-01  -1.60000e-01  -1.40000e-01  -1.20000e-01 
 -1.20000e-01  -1.40000e-01  -1.70000e-01  -2.00000e-01  -2.30000e-01  -2.60000e-01  -3.00000e-01  -3.50000e-01  -3.90000e-01  -4.50000e-01  -5.00000e-01  -5.70000e-01  -6.30000e-01  -7.00000e-01  -7.60000e-01  -8.30000e-01  -8.90000e-01  -9.60000e-01  -1.02000e+00  -1.08000e+00  -1.13000e+00  -1.19000e+00  -1.23000e+00  -1.25000e+00  -1.26000e+00  -1.27000e+00  -1.26000e+00  -1.25000e+00  -1.23000e+00  -1.19000e+00  -1.13000e+00  -1.08000e+00  -1.02000e+00  -9.60000e-01  -8.90000e-01  -8.30000e-01  -7.60000e-01  -7.00000e-01  -6.30000e-01  -5.70000e-01  -5.00000e-01  -4.50000e-01  -3.90000e-01  -3.50000e-01  -3.00000e-01  -2.60000e-01  -2.30000e-01  -2.00000e-01  -1.70000e-01  -1.40000e-01  -1.20000e-01 
 -1.20000e-01  -1.40000e-01  -1.70000e-01  -2.00000e-01  -2.30000e-01  -2.60000e-01  -3.20000e-01  -3.50000e-01  -4.00000e-01  -4.50000e-01  -5.20000e-01  -5.70000e-01  -6.40000e-01  -7.00000e-01  -7.70000e-01  -8.50000e-01  -9.20000e-01  -9.90000e-01  -1.04000e+00  -1.11000e+00  -1.16000e+00  -1.21000e+00  -1.25000e+00  -1.26000e+00  -1.29000e+00  -1.29000e+00  -1.29000e+00  -1.26000e+00  -1.25000e+00  -1.21000e+00  -1.16000e+00  -1.11000e+00  -1.04000e+00  -9.90000e-01  -9.20000e-01  -8.50000e-01  -7.70000e-01  -7.00000e-01  -6.40000e-01  -5.70000e-01  -5.20000e-01  -4.50000e-01  -4.00000e-01  -3.50000e-01  -3.20000e-01  -2.60000e-01  -2.30000e-01  -2.00000e-01  -1.70000e-01  -1.40000e-01  -1.20000e-01 
 -1.20000e-01  -1.40000e-01  -1.70000e-01  -2.00000e-01  -2.30000e-01  -2.60000e-01  -3.20000e-01  -3.50000e-01  -4.10000e-01  -4.50000e-01  -5.20000e-01  -5.80000e-01  -6.50000e-01  -7.30000e-01  -7.80000e-01  -8.50000e-01  -9.20000e-01  -1.00000e+00  -1.07000e+00  -1.13000e+00  -1.17000e+00  -1.22000e+00  -1.26000e+00  -1.29000e+00  -1.32000e+00  -1.32000e+00  -1.32000e+00  -1.29000e+00  -1.26000e+00  -1.22000e+00  -1.17000e+00  -1.13000e+00  -1.07000e+00  -1.00000e+00  -9.20000e-01  -8.50000e-01  -7.80000e-01  -7.30000e-01  -6.50000e-01  -5.80000e-01  -5.20000e-01  -4.50000e-01  -4.10000e-01  -3.50000e-01  -3.20000e-01  -2.60000e-01  -2.30000e-01  -2.00000e-01  -1.70000e-01  -1.40000e-01  -1.20000e-01 
 -1.20000e-01  -1.50000e-01  -1.70000e-01  -2.00000e-01  -2.30000e-01  -2.70000e-01  -3.20000e-01  -3.50000e-01  -4.10000e-01  -4.60000e-01  -5.20000e-01  -5.80000e-01  -6.50000e-01  -7.30000e-01  -7.90000e-01  -8.60000e-01  -9.30000e-01  -1.00000e+00  -1.07000e+00  -1.13000e+00  -1.18000e+00  -1.23000e+00  -1.27000e+00  -1.29000e+00  -1.32000e+00  -1.32000e+00  -1.32000e+00  -1.29000e+00  -1.27000e+00  -1.23000e+00  -1.18000e+00  -1.13000e+00  -1.07000e+00  -1.00000e+00  -9.30000e-01  -8.60000e-01  -7.90000e-01  -7.30000e-01  -6.50000e-01  -5.80000e-01  -5.20000e-01  -4.60000e-01  -4.10000e-01  -3.50000e-01  -3.20000e-01  -2.70000e-01  -2.30000e-01  -2.00000e-01  -1.70000e-01  -1.50000e-01  -1.20000e-01 
 -1.20000e-01  -1.40000e-01  -1.70000e-01  -2.00000e-01  -2.30000e-01  -2.60000e-01  -3.20000e-01  -3.50000e-01  -4.10000e-01  -4.50000e-01  -5.20000e-01  -5.80000e-01  -6.50000e-01  -7.30000e-01  -7.80000e-01  -8.50000e-01  -9.20000e-01  -1.00000e+00  -1.07000e+00  -1.13000e+00  -1.17000e+00  -1.22000e+00  -1.26000e+00  -1.29000e+00  -1.32000e+00  -1.32000e+00  -1.32000e+00  -1.29000e+00  -1.26000e+00  -1.22000e+00  -1.17000e+00  -1.13000e+00  -1.07000e+00  -1.00000e+00  -9.20000e-01  -8.50000e-01  -7.80000e-01  -7.30000e-01  -6.50000e-01  -5.80000e-01  -5.20000e-01  -4.50000e-01  -4.10000e-01  -3.50000e-01  -3.20000e-01  -2.60000e-01  -2.30000e-01  -2.00000e-01  -1.70000e-01  -1.40000e-01  -1.20000e-01 
 -1.20000e-01  -1.40000e-01  -1.70000e-01  -2.00000e-01  -2.30000e-01  -2.60000e-01  -3.20000e-01  -3.50000e-01  -4.00000e-01  -4.50000e-01  -5.20000e-01  -5.70000e-01  -6.40000e-01  -7.00000e-01  -7.70000e-01  -8.50000e-01  -9.20000e-01  -9.90000e-01  -1.04000e+00  -1.11000e+00  -1.16000e+00  -1.21000e+00  -1.25000e+00  -1.26000e+00  -1.29000e+00  -1.29000e+00  -1.29000e+00  -1.26000e+00  -1.25000e+00  -1.21000e+00  -1.16000e+00  -1.11000e+00  -1.04000e+00  -9.90000e-01  -9.20000e-01  -8.50000e-01  -7.70000e-01  -7.00000e-01  -6.40000e-01  -5.70000e-01  -5.20000e-01  -4.50000e-01  -4.00000e-01  -3.50000e-01  -3.20000e-01  -2.60000e-01  -2.30000e-01  -2.00000e-01  -1.70000e-01  -1.40000e-01  -1.20000e-01 
 -1.20000e-01  -1.40000e-01  -1.70000e-01  -2.00000e-01  -2.30000e-01  -2.60000e-01  -3.00000e-01  -3.50000e-01  -3.90000e-01  -4.50000e-01  -5.00000e-01  -5.70000e-01  -6.30000e-01  -7.00000e-01  -7.60000e-01  -8.30000e-01  -8.90000e-01  -9.60000e-01  -1.02000e+00  -1.08000e+00  -1.13000e+00  -1.19000e+00  -1.23000e+00  -1.25000e+00  -1.26000e+00  -1.27000e+00  -1.26000e+00  -1.25000e+00  -1.23000e+00  -1.19000e+00  -1.13000e+00  -1.08000e+00  -1.02000e+00  -9.60000e-01  -8.90000e-01  -8.30000e-01  -7.60000e-01  -7.00000e-01  -6.30000e-01  -5.70000e-01  -5.00000e-01  -4.50000e-01  -3.90000e-01  -3.50000e-01  -3.00000e-01  -2.60000e-01  -2.30000e-01  -2.00000e-01  -1.70000e-01  -1.40000e-01  -1.20000e-01 
 -1.20000e-01  -1.40000e-01  -1.60000e-01  -1.90000e-01  -2.20000e-01  -2.60000e-01  -3.00000e-01  -3.40000e-01  -3.80000e-01  -4.40000e-01  -4.90000e-01  -5.50000e-01  -6.10000e-01  -6.80000e-01  -7.30000e-01  -8.00000e-01  -8.70000e-01  -9.40000e-01  -1.00000e+00  -1.05000e+00  -1.10000e+00  -1.14000e+00  -1.19000e+00  -1.21000e+00  -1.22000e+00  -1.23000e+00  -1.22000e+00  -1.21000e+00  -1.19000e+00  -1.14000e+00  -1.10000e+00  -1.05000e+00  -1.00000e+00  -9.40000e-01  -8.70000e-01  -8.00000e-01  -7.30000e-01  -6.80000e-01  -6.10000e-01  -5.50000e-01  -4.90000e-01  -4.40000e-01  -3.80000e-01  -3.40000e-01  -3.00000e-01  -2.60000e-01  -2.20000e-01  -1.90000e-01  -1.60000e-01  -1.40000e-01  -1.20000e-01 
 -1.00000e-01  -1.30000e-01  -1.60000e-01  -1.90000e-01  -2.20000e-01  -2.50000e-01  -2.80000e-01  -3.20000e-01  -3.80000e-01  -4.20000e-01  -4.80000e-01  -5.30000e-01  -5.90000e-01  -6.40000e-01  -7.10000e-01  -7.70000e-01  -8.40000e-01  -9.00000e-01  -9.60000e-01  -1.01000e+00  -1.06000e+00  -1.10000e+00  -1.13000e+00  -1.16000e+00  -1.17000e+00  -1.18000e+00  -1.17000e+00  -1.16000e+00  -1.13000e+00  -1.10000e+00  -1.06000e+00  -1.01000e+00  -9.60000e-01  -9.00000e-01  -8.40000e-01  -7.70000e-01  -7.10000e-01  -6.40000e-01  -5.90000e-01  -5.30000e-01  -4.80000e-01  -4.20000e-01  -3.80000e-01  -3.20000e-01  -2.80000e-01  -2.50000e-01  -2.20000e-01  -1.90000e-01  -1.60000e-01  -1.30000e-01  -1.00000e-01 
 -1.00000e-01  -1.30000e-01  -1.60000e-01  -1.80000e-01  -2.00000e-01  -2.30000e-01  -2.80000e-01  -3.20000e-01  -3.60000e-01  -4.10000e-01  -4.60000e-01  -5.10000e-01  -5.70000e-01  -6.30000e-01  -6.80000e-01  -7.40000e-01  -8.00000e-01  -8.60000e-01  -9.20000e-01  -9.70000e-01  -1.01000e+00  -1.05000e+00  -1.08000e+00  -1.11000e+00  -1.13000e+00  -1.13000e+00  -1.13000e+00  -1.11000e+00  -1.08000e+00  -1.05000e+00  -1.01000e+00  -9.70000e-01  -9.20000e-01  -8.60000e-01  -8.00000e-01  -7.40000e-01  -6.80000e-01  -6.30000e-01  -5.70000e-01  -5.10000e-01  -4.60000e-01  -4.10000e-01  -3.60000e-01  -3.20000e-01  -2.80000e-01  -2.30000e-01  -2.00000e-01  -1.80000e-01  -1.60000e-01  -1.30000e-01  -1.00000e-01 
 -1.00000e-01  -1.20000e-01  -1.40000e-01  -1.70000e-01  -2.00000e-01  -2.30000e-01  -2.60000e-01  -3.00000e-01  -3.40000e-01  -3.80000e-01  -4.40000e-01  -4.80000e-01  -5.40000e-01  -6.00000e-01  -6.40000e-01  -7.10000e-01  -7.60000e-01  -8.10000e-01  -8.70000e-01  -9.20000e-01  -9.60000e-01  -1.00000e+00  -1.02000e+00  -1.04000e+00  -1.07000e+00  -1.07000e+00  -1.07000e+00  -1.04000e+00  -1.02000e+00  -1.00000e+00  -9.60000e-01  -9.20000e-01  -8.70000e-01  -8.10000e-01  -7.60000e-01  -7.10000e-01  -6.40000e-01  -6.00000e-01  -5.40000e-01  -4.80000e-01  -4.40000e-01  -3.80000e-01  -3.40000e-01  -3.00000e-01  -2.60000e-01  -2.30000e-01  -2.00000e-01  -1.70000e-01  -1.40000e-01  -1.20000e-01  -1.00000e-01 
 -9.00000e-02  -1.20000e-01  -1.40000e-01  -1.60000e-01  -1.90000e-01  -2.20000e-01  -2.50000e-01  -2.90000e-01  -3.20000e-01  -3.60000e-01  -4.10000e-01  -4.60000e-01  -5.10000e-01  -5.50000e-01  -6.00000e-01  -6.70000e-01  -7.20000e-01  -7.60000e-01  -8.20000e-01  -8.60000e-01  -9.00000e-01  -9.40000e-01  -9.60000e-01  -9.90000e-01  -1.00000e+00  -1.00000e+00  -1.00000e+00  -9.90000e-01  -9.60000e-01  -9.40000e-01  -9.00000e-01  -8.60000e-01  -8.20000e-01  -7.60000e-01  -7.20000e-01  -6.70000e-01  -6.00000e-01  -5.50000e-01  -5.10000e-01  -4.60000e-01  -4.10000e-01  -3.60000e-01  -3.20000e-01  -2.90000e-01  -2.50000e-01  -2.20000e-01  -1.90000e-01  -1.60000e-01  -1.40000e-01  -1.20000e-01  -9.00000e-02 
 -9.00000e-02  -1.00000e-01  -1.30000e-01  -1.60000e-01  -1.70000e-01  -2.00000e-01  -2.30000e-01  -2.60000e-01  -3.00000e-01  -3.50000e-01  -3.80000e-01  -4.20000e-01  -4.70000e-01  -5.10000e-01  -5.80000e-01  -6.20000e-01  -6.70000e-01  -7.20000e-01  -7.60000e-01  -8.00000e-01  -8.30000e-01  -8.70000e-01  -8.90000e-01  -9.20000e-01  -9.20000e-01  -9.30000e-01  -9.20000e-01  -9.20000e-01  -8.90000e-01  -8.70000e-01  -8.30000e-01  -8.00000e-01  -7.60000e-01  -7.20000e-01  -6.70000e-01  -6.20000e-01  -5.80000e-01  -5.10000e-01  -4.70000e-01  -4.20000e-01  -3.80000e-01  -3.50000e-01  -3.00000e-01  -2.60000e-01  -2.30000e-01  -2.00000e-01  -1.70000e-01  -1.60000e-01  -1.30000e-01  -1.00000e-01  -9.00000e-02 
 -9.00000e-02  -1.00000e-01  -1.20000e-01  -1.40000e-01  -1.70000e-01  -1.90000e-01  -2.20000e-01  -2.50000e-01  -2.90000e-01  -3.20000e-01  -3.60000e-01  -4.00000e-01  -4.50000e-01  -4.90000e-01  -5.40000e-01  -5.80000e-01  -6.20000e-01  -6.70000e-01  -7.10000e-01  -7.40000e-01  -7.70000e-01  -8.00000e-01  -8.30000e-01  -8.50000e-01  -8.50000e-01  -8.60000e-01  -8.50000e-01  -8.50000e-01  -8.30000e-01  -8.00000e-01  -7.70000e-01  -7.40000e-01  -7.10000e-01  -6.70000e-01  -6.20000e-01  -5.80000e-01  -5.40000e-01  -4.90000e-01  -4.50000e-01  -4.00000e-01  -3.60000e-01  -3.20000e-01  -2.90000e-01  -2.50000e-01  -2.20000e-01  -1.90000e-01  -1.70000e-01  -1.40000e-01  -1.20000e-01  -1.00000e-01  -9.00000e-02 
 -8.00000e-02  -9.00000e-02  -1.10000e-01  -1.30000e-01  -1.60000e-01  -1.70000e-01  -2.00000e-01  -2.30000e-01  -2.60000e-01  -2.90000e-01  -3.30000e-01  -3.70000e-01  -4.10000e-01  -4.50000e-01  -4.90000e-01  -5.40000e-01  -5.80000e-01  -6.10000e-01  -6.40000e-01  -6.80000e-01  -7.10000e-01  -7.30000e-01  -7.60000e-01  -7.70000e-01  -7.90000e-01  -7.90000e-01  -7.90000e-01  -7.70000e-01  -7.60000e-01  -7.30000e-01  -7.10000e-01  -6.80000e-01  -6.40000e-01  -6.10000e-01  -5.80000e-01  -5.40000e-01  -4.90000e-01  -4.50000e-01  -4.10000e-01  -3.70000e-01  -3.30000e-01  -2.90000e-01  -2.60000e-01  -2.30000e-01  -2.00000e-01  -1.70000e-01  -1.60000e-01  -1.30000e-01  -1.10000e-01  -9.00000e-02  -8.00000e-02 
 -7.00000e-02  -9.00000e-02  -1.00000e-01  -1.20000e-01  -1.40000e-01  -1.70000e-01  -1.90000e-01  -2.20000e-01  -2.40000e-01  -2.70000e-01  -3.10000e-01  -3.50000e-01  -3.70000e-01  -4.10000e-01  -4.50000e-01  -4.90000e-01  -5.20000e-01  -5.50000e-01  -6.00000e-01  -6.30000e-01  -6.40000e-01  -6.80000e-01  -7.00000e-01  -7.00000e-01  -7.30000e-01  -7.30000e-01  -7.30000e-01  -7.00000e-01  -7.00000e-01  -6.80000e-01  -6.40000e-01  -6.30000e-01  -6.00000e-01  -5.50000e-01  -5.20000e-01  -4.90000e-01  -4.50000e-01  -4.10000e-01  -3.70000e-01  -3.50000e-01  -3.10000e-01  -2.70000e-01  -2.40000e-01  -2.20000e-01  -1.90000e-01  -1.70000e-01  -1.40000e-01  -1.20000e-01  -1.00000e-01  -9.00000e-02  -7.00000e-02 
 -7.00000e-02  -7.00000e-02  -9.00000e-02  -1.10000e-01  -1.30000e-01  -1.60000e-01  -1.70000e-01  -2.00000e-01  -2.20000e-01  -2.50000e-01  -2.80000e-01  -3.10000e-01  -3.50000e-01  -3.70000e-01  -4.10000e-01  -4.50000e-01  -4.70000e-01  -5.10000e-01  -5.40000e-01  -5.70000e-01  -5.90000e-01  -6.10000e-01  -6.30000e-01  -6.40000e-01  -6.50000e-01  -6.50000e-01  -6.50000e-01  -6.40000e-01  -6.30000e-01  -6.10000e-01  -5.90000e-01  -5.70000e-01  -5.40000e-01  -5.10000e-01  -4.70000e-01  -4.50000e-01  -4.10000e-01  -3.70000e-01  -3.50000e-01  -3.10000e-01  -2.80000e-01  -2.50000e-01  -2.20000e-01  -2.00000e-01  -1.70000e-01  -1.60000e-01  -1.30000e-01  -1.10000e-01  -9.00000e-02  -7.00000e-02  -7.00000e-02 
 -6.00000e-02  -7.00000e-02  -9.00000e-02  -1.00000e-01  -1.20000e-01  -1.30000e-01  -1.50000e-01  -1.80000e-01  -2.00000e-01  -2.30000e-01  -2.50000e-01  -2.90000e-01  -3.10000e-01  -3.50000e-01  -3.70000e-01  -4.00000e-01  -4.20000e-01  -4.50000e-01  -4.80000e-01  -5.10000e-01  -5.30000e-01  -5.50000e-01  -5.70000e-01  -5.80000e-01  -5.80000e-01  -5.80000e-01  -5.80000e-01  -5.80000e-01  -5.70000e-01  -5.50000e-01  -5.30000e-01  -5.10000e-01  -4.80000e-01  -4.50000e-01  -4.20000e-01  -4.00000e-01  -3.70000e-01  -3.50000e-01  -3.10000e-01  -2.90000e-01  -2.50000e-01  -2.30000e-01  -2.00000e-01  -1.80000e-01  -1.50000e-01  -1.30000e-01  -1.20000e-01  -1.00000e-01  -9.00000e-02  -7.00000e-02  -6.00000e-02 
 -5.00000e-02  -7.00000e-02  -7.00000e-02  -9.00000e-02  -1.10000e-01  -1.20000e-01  -1.30000e-01  -1.60000e-01  -1.80000e-01  -2.00000e-01  -2.30000e-01  -2.50000e-01  -2.80000e-01  -3.10000e-01  -3.30000e-01  -3.60000e-01  -3.80000e-01  -4.10000e-01  -4.40000e-01  -4.60000e-01  -4.80000e-01  -4.90000e-01  -5.00000e-01  -5.20000e-01  -5.20000e-01  -5.20000e-01  -5.20000e-01  -5.20000e-01  -5.00000e-01  -4.90000e-01  -4.80000e-01  -4.60000e-01  -4.40000e-01  -4.10000e-01  -3.80000e-01  -3.60000e-01  -3.30000e-01  -3.10000e-01  -2.80000e-01  -2.50000e-01  -2.30000e-01  -2.00000e-01  -1.80000e-01  -1.60000e-01  -1.30000e-01  -1.20000e-01  -1.10000e-01  -9.00000e-02  -7.00000e-02  -7.00000e-02  -5.00000e-02 