# vtk DataFile Version 3.0
benceno_ANI vkfile_converted
ASCII
DATASET STRUCTURED_POINTS
DIMENSIONS 51 51 101
ORIGIN -2.5 -2.5 -5
SPACING 0.100000212275277 0.100000212275277 0.100000212275277
POINT_DATA 262701
SCALARS scalars float 1
LOOKUP_TABLE default
 -1.40140e+00  -1.43080e+00  -1.45980e+00  -1.48840e+00  -1.51660e+00  -1.54420e+00  -1.57120e+00  -1.59750e+00  -1.62300e+00  -1.64760e+00  -1.67130e+00  -1.69390e+00  -1.71530e+00  -1.73550e+00  -1.75450e+00  -1.77200e+00  -1.78810e+00  -1.80280e+00  -1.81580e+00  -1.82720e+00  -1.83700e+00  -1.84500e+00  -1.85130e+00  -1.85580e+00  -1.85850e+00  -1.85940e+00  -1.85850e+00  -1.85580e+00  -1.85130e+00  -1.84500e+00  -1.83700e+00  -1.82720e+00  -1.81580e+00  -1.80280e+00  -1.78810e+00  -1.77200e+00  -1.75450e+00  -1.73550e+00  -1.71530e+00  -1.69390e+00  -1.67130e+00  -1.64760e+00  -1.62300e+00  -1.59750e+00  -1.57120e+00  -1.54420e+00  -1.51660e+00  -1.48840e+00  -1.45980e+00  -1.43080e+00  -1.40140e+00 
 -1.43080e+00  -1.46110e+00  -1.49110e+00  -1.52070e+00  -1.54980e+00  -1.57830e+00  -1.60620e+00  -1.63340e+00  -1.65980e+00  -1.68530e+00  -1.70970e+00  -1.73310e+00  -1.75530e+00  -1.77620e+00  -1.79580e+00  -1.81400e+00  -1.83070e+00  -1.84580e+00  -1.85930e+00  -1.87110e+00  -1.88120e+00  -1.88960e+00  -1.89610e+00  -1.90070e+00  -1.90350e+00  -1.90450e+00  -1.90350e+00  -1.90070e+00  -1.89610e+00  -1.88960e+00  -1.88120e+00  -1.87110e+00  -1.85930e+00  -1.84580e+00  -1.83070e+00  -1.81400e+00  -1.79580e+00  -1.77620e+00  -1.75530e+00  -1.73310e+00  -1.70970e+00  -1.68530e+00  -1.65980e+00  -1.63340e+00  -1.60620e+00  -1.57830e+00  -1.54980e+00  -1.52070e+00  -1.49110e+00  -1.46110e+00  -1.43080e+00 
 -1.45990e+00  -1.49110e+00  -1.52200e+00  -1.55260e+00  -1.58260e+00  -1.61210e+00  -1.64090e+00  -1.66900e+00  -1.69630e+00  -1.72260e+00  -1.74780e+00  -1.77200e+00  -1.79490e+00  -1.81660e+00  -1.83680e+00  -1.85560e+00  -1.87290e+00  -1.88860e+00  -1.90250e+00  -1.91480e+00  -1.92520e+00  -1.93380e+00  -1.94060e+00  -1.94540e+00  -1.94830e+00  -1.94930e+00  -1.94830e+00  -1.94540e+00  -1.94060e+00  -1.93380e+00  -1.92520e+00  -1.91480e+00  -1.90250e+00  -1.88860e+00  -1.87290e+00  -1.85560e+00  -1.83680e+00  -1.81660e+00  -1.79490e+00  -1.77200e+00  -1.74780e+00  -1.72260e+00  -1.69630e+00  -1.66900e+00  -1.64090e+00  -1.61210e+00  -1.58260e+00  -1.55260e+00  -1.52200e+00  -1.49110e+00  -1.45990e+00 
 -1.48860e+00  -1.52080e+00  -1.55260e+00  -1.58410e+00  -1.61510e+00  -1.64550e+00  -1.67520e+00  -1.70420e+00  -1.73230e+00  -1.75950e+00  -1.78550e+00  -1.81050e+00  -1.83420e+00  -1.85650e+00  -1.87750e+00  -1.89690e+00  -1.91470e+00  -1.93090e+00  -1.94530e+00  -1.95800e+00  -1.96870e+00  -1.97760e+00  -1.98460e+00  -1.98960e+00  -1.99260e+00  -1.99360e+00  -1.99260e+00  -1.98960e+00  -1.98460e+00  -1.97760e+00  -1.96870e+00  -1.95800e+00  -1.94530e+00  -1.93090e+00  -1.91470e+00  -1.89690e+00  -1.87750e+00  -1.85650e+00  -1.83420e+00  -1.81050e+00  -1.78550e+00  -1.75950e+00  -1.73230e+00  -1.70420e+00  -1.67520e+00  -1.64550e+00  -1.61510e+00  -1.58410e+00  -1.55260e+00  -1.52080e+00  -1.48860e+00 
 -1.51680e+00  -1.54990e+00  -1.58270e+00  -1.61510e+00  -1.64700e+00  -1.67840e+00  -1.70900e+00  -1.73890e+00  -1.76780e+00  -1.79580e+00  -1.82270e+00  -1.84840e+00  -1.87290e+00  -1.89590e+00  -1.91750e+00  -1.93760e+00  -1.95600e+00  -1.97260e+00  -1.98750e+00  -2.00060e+00  -2.01170e+00  -2.02090e+00  -2.02810e+00  -2.03320e+00  -2.03630e+00  -2.03740e+00  -2.03630e+00  -2.03320e+00  -2.02810e+00  -2.02090e+00  -2.01170e+00  -2.00060e+00  -1.98750e+00  -1.97260e+00  -1.95600e+00  -1.93760e+00  -1.91750e+00  -1.89590e+00  -1.87290e+00  -1.84840e+00  -1.82270e+00  -1.79580e+00  -1.76780e+00  -1.73890e+00  -1.70900e+00  -1.67840e+00  -1.64700e+00  -1.61510e+00  -1.58270e+00  -1.54990e+00  -1.51680e+00 
 -1.54450e+00  -1.57850e+00  -1.61220e+00  -1.64560e+00  -1.67840e+00  -1.71060e+00  -1.74220e+00  -1.77290e+00  -1.80270e+00  -1.83160e+00  -1.85930e+00  -1.88570e+00  -1.91090e+00  -1.93470e+00  -1.95690e+00  -1.97760e+00  -1.99650e+00  -2.01370e+00  -2.02910e+00  -2.04250e+00  -2.05400e+00  -2.06350e+00  -2.07090e+00  -2.07620e+00  -2.07940e+00  -2.08040e+00  -2.07940e+00  -2.07620e+00  -2.07090e+00  -2.06350e+00  -2.05400e+00  -2.04250e+00  -2.02910e+00  -2.01370e+00  -1.99650e+00  -1.97760e+00  -1.95690e+00  -1.93470e+00  -1.91090e+00  -1.88570e+00  -1.85930e+00  -1.83160e+00  -1.80270e+00  -1.77290e+00  -1.74220e+00  -1.71060e+00  -1.67840e+00  -1.64560e+00  -1.61220e+00  -1.57850e+00  -1.54450e+00 
 -1.57150e+00  -1.60650e+00  -1.64110e+00  -1.67540e+00  -1.70910e+00  -1.74220e+00  -1.77460e+00  -1.80620e+00  -1.83690e+00  -1.86650e+00  -1.89500e+00  -1.92230e+00  -1.94820e+00  -1.97260e+00  -1.99550e+00  -2.01680e+00  -2.03630e+00  -2.05400e+00  -2.06980e+00  -2.08360e+00  -2.09540e+00  -2.10520e+00  -2.11280e+00  -2.11830e+00  -2.12150e+00  -2.12260e+00  -2.12150e+00  -2.11830e+00  -2.11280e+00  -2.10520e+00  -2.09540e+00  -2.08360e+00  -2.06980e+00  -2.05400e+00  -2.03630e+00  -2.01680e+00  -1.99550e+00  -1.97260e+00  -1.94820e+00  -1.92230e+00  -1.89500e+00  -1.86650e+00  -1.83690e+00  -1.80620e+00  -1.77460e+00  -1.74220e+00  -1.70910e+00  -1.67540e+00  -1.64110e+00  -1.60650e+00  -1.57150e+00 
 -1.59780e+00  -1.63370e+00  -1.66920e+00  -1.70440e+00  -1.73900e+00  -1.77300e+00  -1.80630e+00  -1.83870e+00  -1.87020e+00  -1.90060e+00  -1.92990e+00  -1.95790e+00  -1.98450e+00  -2.00960e+00  -2.03320e+00  -2.05500e+00  -2.07500e+00  -2.09320e+00  -2.10950e+00  -2.12370e+00  -2.13590e+00  -2.14590e+00  -2.15370e+00  -2.15930e+00  -2.16270e+00  -2.16380e+00  -2.16270e+00  -2.15930e+00  -2.15370e+00  -2.14590e+00  -2.13590e+00  -2.12370e+00  -2.10950e+00  -2.09320e+00  -2.07500e+00  -2.05500e+00  -2.03320e+00  -2.00960e+00  -1.98450e+00  -1.95790e+00  -1.92990e+00  -1.90060e+00  -1.87020e+00  -1.83870e+00  -1.80630e+00  -1.77300e+00  -1.73900e+00  -1.70440e+00  -1.66920e+00  -1.63370e+00  -1.59780e+00 
 -1.62330e+00  -1.66010e+00  -1.69650e+00  -1.73250e+00  -1.76800e+00  -1.80280e+00  -1.83700e+00  -1.87020e+00  -1.90250e+00  -1.93380e+00  -1.96380e+00  -1.99250e+00  -2.01980e+00  -2.04560e+00  -2.06970e+00  -2.09220e+00  -2.11270e+00  -2.13140e+00  -2.14810e+00  -2.16270e+00  -2.17520e+00  -2.18540e+00  -2.19350e+00  -2.19930e+00  -2.20270e+00  -2.20390e+00  -2.20270e+00  -2.19930e+00  -2.19350e+00  -2.18540e+00  -2.17520e+00  -2.16270e+00  -2.14810e+00  -2.13140e+00  -2.11270e+00  -2.09220e+00  -2.06970e+00  -2.04560e+00  -2.01980e+00  -1.99250e+00  -1.96380e+00  -1.93380e+00  -1.90250e+00  -1.87020e+00  -1.83700e+00  -1.80280e+00  -1.76800e+00  -1.73250e+00  -1.69650e+00  -1.66010e+00  -1.62330e+00 
 -1.64790e+00  -1.68550e+00  -1.72280e+00  -1.75970e+00  -1.79600e+00  -1.83170e+00  -1.86660e+00  -1.90070e+00  -1.93380e+00  -1.96580e+00  -1.99660e+00  -2.02600e+00  -2.05400e+00  -2.08040e+00  -2.10510e+00  -2.12810e+00  -2.14920e+00  -2.16830e+00  -2.18540e+00  -2.20040e+00  -2.21320e+00  -2.22370e+00  -2.23200e+00  -2.23790e+00  -2.24140e+00  -2.24260e+00  -2.24140e+00  -2.23790e+00  -2.23200e+00  -2.22370e+00  -2.21320e+00  -2.20040e+00  -2.18540e+00  -2.16830e+00  -2.14920e+00  -2.12810e+00  -2.10510e+00  -2.08040e+00  -2.05400e+00  -2.02600e+00  -1.99660e+00  -1.96580e+00  -1.93380e+00  -1.90070e+00  -1.86660e+00  -1.83170e+00  -1.79600e+00  -1.75970e+00  -1.72280e+00  -1.68550e+00  -1.64790e+00 
 -1.67160e+00  -1.71000e+00  -1.74810e+00  -1.78570e+00  -1.82290e+00  -1.85940e+00  -1.89510e+00  -1.93000e+00  -1.96390e+00  -1.99660e+00  -2.02810e+00  -2.05820e+00  -2.08680e+00  -2.11380e+00  -2.13920e+00  -2.16270e+00  -2.18430e+00  -2.20390e+00  -2.22140e+00  -2.23670e+00  -2.24980e+00  -2.26060e+00  -2.26900e+00  -2.27510e+00  -2.27870e+00  -2.27990e+00  -2.27870e+00  -2.27510e+00  -2.26900e+00  -2.26060e+00  -2.24980e+00  -2.23670e+00  -2.22140e+00  -2.20390e+00  -2.18430e+00  -2.16270e+00  -2.13920e+00  -2.11380e+00  -2.08680e+00  -2.05820e+00  -2.02810e+00  -1.99660e+00  -1.96390e+00  -1.93000e+00  -1.89510e+00  -1.85940e+00  -1.82290e+00  -1.78580e+00  -1.74810e+00  -1.71000e+00  -1.67160e+00 
 -1.69420e+00  -1.73330e+00  -1.77220e+00  -1.81070e+00  -1.84860e+00  -1.88590e+00  -1.92240e+00  -1.95800e+00  -1.99260e+00  -2.02600e+00  -2.05820e+00  -2.08900e+00  -2.11820e+00  -2.14590e+00  -2.17170e+00  -2.19580e+00  -2.21780e+00  -2.23790e+00  -2.25580e+00  -2.27140e+00  -2.28480e+00  -2.29580e+00  -2.30450e+00  -2.31070e+00  -2.31440e+00  -2.31560e+00  -2.31440e+00  -2.31070e+00  -2.30450e+00  -2.29580e+00  -2.28480e+00  -2.27140e+00  -2.25580e+00  -2.23790e+00  -2.21780e+00  -2.19580e+00  -2.17170e+00  -2.14590e+00  -2.11820e+00  -2.08900e+00  -2.05820e+00  -2.02600e+00  -1.99260e+00  -1.95800e+00  -1.92240e+00  -1.88590e+00  -1.84860e+00  -1.81070e+00  -1.77220e+00  -1.73330e+00  -1.69420e+00 
 -1.71560e+00  -1.75550e+00  -1.79520e+00  -1.83440e+00  -1.87310e+00  -1.91110e+00  -1.94830e+00  -1.98460e+00  -2.01990e+00  -2.05400e+00  -2.08680e+00  -2.11820e+00  -2.14810e+00  -2.17630e+00  -2.20270e+00  -2.22720e+00  -2.24980e+00  -2.27020e+00  -2.28850e+00  -2.30450e+00  -2.31810e+00  -2.32940e+00  -2.33820e+00  -2.34450e+00  -2.34830e+00  -2.34960e+00  -2.34830e+00  -2.34450e+00  -2.33820e+00  -2.32940e+00  -2.31810e+00  -2.30450e+00  -2.28850e+00  -2.27020e+00  -2.24980e+00  -2.22720e+00  -2.20270e+00  -2.17630e+00  -2.14810e+00  -2.11820e+00  -2.08680e+00  -2.05400e+00  -2.01990e+00  -1.98460e+00  -1.94830e+00  -1.91110e+00  -1.87310e+00  -1.83440e+00  -1.79520e+00  -1.75550e+00  -1.71560e+00 
 -1.73580e+00  -1.77640e+00  -1.81680e+00  -1.85670e+00  -1.89610e+00  -1.93480e+00  -1.97270e+00  -2.00970e+00  -2.04570e+00  -2.08040e+00  -2.11390e+00  -2.14590e+00  -2.17630e+00  -2.20500e+00  -2.23200e+00  -2.25700e+00  -2.27990e+00  -2.30070e+00  -2.31940e+00  -2.33570e+00  -2.34960e+00  -2.36110e+00  -2.37000e+00  -2.37650e+00  -2.38040e+00  -2.38170e+00  -2.38040e+00  -2.37650e+00  -2.37000e+00  -2.36110e+00  -2.34960e+00  -2.33570e+00  -2.31940e+00  -2.30070e+00  -2.27990e+00  -2.25700e+00  -2.23200e+00  -2.20500e+00  -2.17630e+00  -2.14590e+00  -2.11390e+00  -2.08040e+00  -2.04570e+00  -2.00970e+00  -1.97270e+00  -1.93480e+00  -1.89610e+00  -1.85670e+00  -1.81680e+00  -1.77640e+00  -1.73580e+00 
 -1.75470e+00  -1.79600e+00  -1.83700e+00  -1.87760e+00  -1.91770e+00  -1.95710e+00  -1.99560e+00  -2.03330e+00  -2.06980e+00  -2.10520e+00  -2.13920e+00  -2.17180e+00  -2.20270e+00  -2.23200e+00  -2.25940e+00  -2.28480e+00  -2.30820e+00  -2.32940e+00  -2.34830e+00  -2.36490e+00  -2.37910e+00  -2.39070e+00  -2.39990e+00  -2.40640e+00  -2.41040e+00  -2.41170e+00  -2.41040e+00  -2.40640e+00  -2.39990e+00  -2.39070e+00  -2.37910e+00  -2.36490e+00  -2.34830e+00  -2.32940e+00  -2.30820e+00  -2.28480e+00  -2.25940e+00  -2.23200e+00  -2.20270e+00  -2.17180e+00  -2.13920e+00  -2.10520e+00  -2.06980e+00  -2.03330e+00  -1.99560e+00  -1.95710e+00  -1.91770e+00  -1.87760e+00  -1.83700e+00  -1.79600e+00  -1.75470e+00 
 -1.77220e+00  -1.81410e+00  -1.85580e+00  -1.89700e+00  -1.93770e+00  -1.97770e+00  -2.01690e+00  -2.05510e+00  -2.09220e+00  -2.12820e+00  -2.16270e+00  -2.19580e+00  -2.22730e+00  -2.25700e+00  -2.28480e+00  -2.31070e+00  -2.33440e+00  -2.35590e+00  -2.37520e+00  -2.39200e+00  -2.40640e+00  -2.41830e+00  -2.42760e+00  -2.43430e+00  -2.43830e+00  -2.43960e+00  -2.43830e+00  -2.43430e+00  -2.42760e+00  -2.41830e+00  -2.40640e+00  -2.39200e+00  -2.37520e+00  -2.35590e+00  -2.33440e+00  -2.31070e+00  -2.28480e+00  -2.25700e+00  -2.22730e+00  -2.19580e+00  -2.16270e+00  -2.12820e+00  -2.09220e+00  -2.05510e+00  -2.01690e+00  -1.97770e+00  -1.93770e+00  -1.89700e+00  -1.85580e+00  -1.81410e+00  -1.77220e+00 
 -1.78830e+00  -1.83080e+00  -1.87300e+00  -1.91480e+00  -1.95610e+00  -1.99660e+00  -2.03640e+00  -2.07510e+00  -2.11280e+00  -2.14920e+00  -2.18430e+00  -2.21790e+00  -2.24980e+00  -2.27990e+00  -2.30820e+00  -2.33440e+00  -2.35850e+00  -2.38040e+00  -2.39990e+00  -2.41700e+00  -2.43160e+00  -2.44360e+00  -2.45310e+00  -2.45980e+00  -2.46390e+00  -2.46530e+00  -2.46390e+00  -2.45980e+00  -2.45310e+00  -2.44360e+00  -2.43160e+00  -2.41700e+00  -2.39990e+00  -2.38040e+00  -2.35850e+00  -2.33440e+00  -2.30820e+00  -2.27990e+00  -2.24980e+00  -2.21790e+00  -2.18430e+00  -2.14920e+00  -2.11280e+00  -2.07510e+00  -2.03640e+00  -1.99660e+00  -1.95610e+00  -1.91480e+00  -1.87300e+00  -1.83080e+00  -1.78830e+00 
 -1.80280e+00  -1.84590e+00  -1.88860e+00  -1.93100e+00  -1.97270e+00  -2.01380e+00  -2.05400e+00  -2.09330e+00  -2.13150e+00  -2.16840e+00  -2.20390e+00  -2.23790e+00  -2.27020e+00  -2.30080e+00  -2.32940e+00  -2.35590e+00  -2.38040e+00  -2.40250e+00  -2.42230e+00  -2.43960e+00  -2.45440e+00  -2.46660e+00  -2.47620e+00  -2.48300e+00  -2.48710e+00  -2.48850e+00  -2.48710e+00  -2.48300e+00  -2.47620e+00  -2.46660e+00  -2.45440e+00  -2.43960e+00  -2.42230e+00  -2.40250e+00  -2.38040e+00  -2.35590e+00  -2.32940e+00  -2.30080e+00  -2.27020e+00  -2.23790e+00  -2.20390e+00  -2.16840e+00  -2.13150e+00  -2.09330e+00  -2.05400e+00  -2.01380e+00  -1.97270e+00  -1.93100e+00  -1.88860e+00  -1.84590e+00  -1.80280e+00 
 -1.81580e+00  -1.85940e+00  -1.90260e+00  -1.94540e+00  -1.98760e+00  -2.02910e+00  -2.06980e+00  -2.10950e+00  -2.14810e+00  -2.18550e+00  -2.22140e+00  -2.25580e+00  -2.28850e+00  -2.31940e+00  -2.34830e+00  -2.37520e+00  -2.39990e+00  -2.42230e+00  -2.44230e+00  -2.45980e+00  -2.47480e+00  -2.48710e+00  -2.49680e+00  -2.50370e+00  -2.50790e+00  -2.50930e+00  -2.50790e+00  -2.50370e+00  -2.49680e+00  -2.48710e+00  -2.47480e+00  -2.45980e+00  -2.44230e+00  -2.42230e+00  -2.39990e+00  -2.37520e+00  -2.34830e+00  -2.31940e+00  -2.28850e+00  -2.25580e+00  -2.22140e+00  -2.18550e+00  -2.14810e+00  -2.10950e+00  -2.06980e+00  -2.02910e+00  -1.98760e+00  -1.94540e+00  -1.90260e+00  -1.85940e+00  -1.81580e+00 
 -1.82720e+00  -1.87110e+00  -1.91480e+00  -1.95800e+00  -2.00060e+00  -2.04250e+00  -2.08360e+00  -2.12370e+00  -2.16270e+00  -2.20040e+00  -2.23670e+00  -2.27140e+00  -2.30450e+00  -2.33570e+00  -2.36490e+00  -2.39210e+00  -2.41700e+00  -2.43960e+00  -2.45980e+00  -2.47750e+00  -2.49270e+00  -2.50510e+00  -2.51490e+00  -2.52190e+00  -2.52610e+00  -2.52750e+00  -2.52610e+00  -2.52190e+00  -2.51490e+00  -2.50510e+00  -2.49270e+00  -2.47750e+00  -2.45980e+00  -2.43960e+00  -2.41700e+00  -2.39210e+00  -2.36490e+00  -2.33570e+00  -2.30450e+00  -2.27140e+00  -2.23670e+00  -2.20040e+00  -2.16270e+00  -2.12370e+00  -2.08360e+00  -2.04250e+00  -2.00060e+00  -1.95800e+00  -1.91480e+00  -1.87110e+00  -1.82720e+00 
 -1.83690e+00  -1.88120e+00  -1.92520e+00  -1.96870e+00  -2.01170e+00  -2.05400e+00  -2.09540e+00  -2.13590e+00  -2.17520e+00  -2.21320e+00  -2.24980e+00  -2.28480e+00  -2.31810e+00  -2.34960e+00  -2.37910e+00  -2.40640e+00  -2.43160e+00  -2.45440e+00  -2.47480e+00  -2.49270e+00  -2.50790e+00  -2.52050e+00  -2.53030e+00  -2.53740e+00  -2.54160e+00  -2.54310e+00  -2.54160e+00  -2.53740e+00  -2.53030e+00  -2.52050e+00  -2.50790e+00  -2.49270e+00  -2.47480e+00  -2.45440e+00  -2.43160e+00  -2.40640e+00  -2.37910e+00  -2.34960e+00  -2.31810e+00  -2.28480e+00  -2.24980e+00  -2.21320e+00  -2.17520e+00  -2.13590e+00  -2.09540e+00  -2.05400e+00  -2.01170e+00  -1.96870e+00  -1.92520e+00  -1.88120e+00  -1.83690e+00 
 -1.84490e+00  -1.88950e+00  -1.93380e+00  -1.97760e+00  -2.02090e+00  -2.06340e+00  -2.10520e+00  -2.14590e+00  -2.18540e+00  -2.22370e+00  -2.26060e+00  -2.29580e+00  -2.32940e+00  -2.36110e+00  -2.39070e+00  -2.41830e+00  -2.44360e+00  -2.46660e+00  -2.48710e+00  -2.50510e+00  -2.52050e+00  -2.53310e+00  -2.54310e+00  -2.55020e+00  -2.55440e+00  -2.55590e+00  -2.55440e+00  -2.55020e+00  -2.54310e+00  -2.53310e+00  -2.52050e+00  -2.50510e+00  -2.48710e+00  -2.46660e+00  -2.44360e+00  -2.41830e+00  -2.39070e+00  -2.36110e+00  -2.32940e+00  -2.29580e+00  -2.26060e+00  -2.22370e+00  -2.18540e+00  -2.14590e+00  -2.10520e+00  -2.06340e+00  -2.02090e+00  -1.97760e+00  -1.93380e+00  -1.88950e+00  -1.84490e+00 
 -1.85120e+00  -1.89600e+00  -1.94050e+00  -1.98450e+00  -2.02800e+00  -2.07080e+00  -2.11280e+00  -2.15370e+00  -2.19350e+00  -2.23200e+00  -2.26900e+00  -2.30450e+00  -2.33820e+00  -2.37000e+00  -2.39990e+00  -2.42760e+00  -2.45310e+00  -2.47620e+00  -2.49680e+00  -2.51490e+00  -2.53030e+00  -2.54310e+00  -2.55300e+00  -2.56020e+00  -2.56450e+00  -2.56590e+00  -2.56450e+00  -2.56020e+00  -2.55300e+00  -2.54310e+00  -2.53030e+00  -2.51490e+00  -2.49680e+00  -2.47620e+00  -2.45310e+00  -2.42760e+00  -2.39990e+00  -2.37000e+00  -2.33820e+00  -2.30450e+00  -2.26900e+00  -2.23200e+00  -2.19350e+00  -2.15370e+00  -2.11280e+00  -2.07080e+00  -2.02800e+00  -1.98450e+00  -1.94050e+00  -1.89600e+00  -1.85120e+00 
 -1.85570e+00  -1.90060e+00  -1.94530e+00  -1.98950e+00  -2.03320e+00  -2.07610e+00  -2.11820e+00  -2.15930e+00  -2.19920e+00  -2.23790e+00  -2.27510e+00  -2.31070e+00  -2.34450e+00  -2.37650e+00  -2.40640e+00  -2.43430e+00  -2.45980e+00  -2.48300e+00  -2.50370e+00  -2.52190e+00  -2.53740e+00  -2.55020e+00  -2.56020e+00  -2.56730e+00  -2.57170e+00  -2.57310e+00  -2.57170e+00  -2.56730e+00  -2.56020e+00  -2.55020e+00  -2.53740e+00  -2.52190e+00  -2.50370e+00  -2.48300e+00  -2.45980e+00  -2.43430e+00  -2.40640e+00  -2.37650e+00  -2.34450e+00  -2.31070e+00  -2.27510e+00  -2.23790e+00  -2.19920e+00  -2.15930e+00  -2.11820e+00  -2.07610e+00  -2.03320e+00  -1.98950e+00  -1.94530e+00  -1.90060e+00  -1.85570e+00 
 -1.85840e+00  -1.90340e+00  -1.94820e+00  -1.99250e+00  -2.03630e+00  -2.07930e+00  -2.12150e+00  -2.16270e+00  -2.20270e+00  -2.24140e+00  -2.27870e+00  -2.31440e+00  -2.34830e+00  -2.38040e+00  -2.41040e+00  -2.43830e+00  -2.46390e+00  -2.48710e+00  -2.50790e+00  -2.52610e+00  -2.54160e+00  -2.55440e+00  -2.56450e+00  -2.57170e+00  -2.57600e+00  -2.57740e+00  -2.57600e+00  -2.57170e+00  -2.56450e+00  -2.55440e+00  -2.54160e+00  -2.52610e+00  -2.50790e+00  -2.48710e+00  -2.46390e+00  -2.43830e+00  -2.41040e+00  -2.38040e+00  -2.34830e+00  -2.31440e+00  -2.27870e+00  -2.24140e+00  -2.20270e+00  -2.16270e+00  -2.12150e+00  -2.07930e+00  -2.03630e+00  -1.99250e+00  -1.94820e+00  -1.90340e+00  -1.85840e+00 
 -1.85930e+00  -1.90440e+00  -1.94920e+00  -1.99350e+00  -2.03730e+00  -2.08040e+00  -2.12260e+00  -2.16380e+00  -2.20390e+00  -2.24260e+00  -2.27990e+00  -2.31560e+00  -2.34960e+00  -2.38170e+00  -2.41170e+00  -2.43960e+00  -2.46530e+00  -2.48850e+00  -2.50930e+00  -2.52750e+00  -2.54310e+00  -2.55590e+00  -2.56590e+00  -2.57310e+00  -2.57740e+00  -2.57890e+00  -2.57740e+00  -2.57310e+00  -2.56590e+00  -2.55590e+00  -2.54310e+00  -2.52750e+00  -2.50930e+00  -2.48850e+00  -2.46530e+00  -2.43960e+00  -2.41170e+00  -2.38170e+00  -2.34960e+00  -2.31560e+00  -2.27990e+00  -2.24260e+00  -2.20390e+00  -2.16380e+00  -2.12260e+00  -2.08040e+00  -2.03730e+00  -1.99350e+00  -1.94920e+00  -1.90440e+00  -1.85930e+00 
 -1.85840e+00  -1.90340e+00  -1.94820e+00  -1.99250e+00  -2.03630e+00  -2.07930e+00  -2.12150e+00  -2.16270e+00  -2.20270e+00  -2.24140e+00  -2.27870e+00  -2.31440e+00  -2.34830e+00  -2.38040e+00  -2.41040e+00  -2.43830e+00  -2.46390e+00  -2.48710e+00  -2.50790e+00  -2.52610e+00  -2.54160e+00  -2.55440e+00  -2.56450e+00  -2.57170e+00  -2.57600e+00  -2.57740e+00  -2.57600e+00  -2.57170e+00  -2.56450e+00  -2.55440e+00  -2.54160e+00  -2.52610e+00  -2.50790e+00  -2.48710e+00  -2.46390e+00  -2.43830e+00  -2.41040e+00  -2.38040e+00  -2.34830e+00  -2.31440e+00  -2.27870e+00  -2.24140e+00  -2.20270e+00  -2.16270e+00  -2.12150e+00  -2.07930e+00  -2.03630e+00  -1.99250e+00  -1.94820e+00  -1.90340e+00  -1.85840e+00 
 -1.85570e+00  -1.90060e+00  -1.94530e+00  -1.98950e+00  -2.03320e+00  -2.07610e+00  -2.11820e+00  -2.15930e+00  -2.19920e+00  -2.23790e+00  -2.27510e+00  -2.31070e+00  -2.34450e+00  -2.37650e+00  -2.40640e+00  -2.43430e+00  -2.45980e+00  -2.48300e+00  -2.50370e+00  -2.52190e+00  -2.53740e+00  -2.55020e+00  -2.56020e+00  -2.56730e+00  -2.57170e+00  -2.57310e+00  -2.57170e+00  -2.56730e+00  -2.56020e+00  -2.55020e+00  -2.53740e+00  -2.52190e+00  -2.50370e+00  -2.48300e+00  -2.45980e+00  -2.43430e+00  -2.40640e+00  -2.37650e+00  -2.34450e+00  -2.31070e+00  -2.27510e+00  -2.23790e+00  -2.19920e+00  -2.15930e+00  -2.11820e+00  -2.07610e+00  -2.03320e+00  -1.98950e+00  -1.94530e+00  -1.90060e+00  -1.85570e+00 
 -1.85120e+00  -1.89600e+00  -1.94050e+00  -1.98450e+00  -2.02800e+00  -2.07080e+00  -2.11280e+00  -2.15370e+00  -2.19350e+00  -2.23200e+00  -2.26900e+00  -2.30450e+00  -2.33820e+00  -2.37000e+00  -2.39990e+00  -2.42760e+00  -2.45310e+00  -2.47620e+00  -2.49680e+00  -2.51490e+00  -2.53030e+00  -2.54310e+00  -2.55300e+00  -2.56020e+00  -2.56450e+00  -2.56590e+00  -2.56450e+00  -2.56020e+00  -2.55300e+00  -2.54310e+00  -2.53030e+00  -2.51490e+00  -2.49680e+00  -2.47620e+00  -2.45310e+00  -2.42760e+00  -2.39990e+00  -2.37000e+00  -2.33820e+00  -2.30450e+00  -2.26900e+00  -2.23200e+00  -2.19350e+00  -2.15370e+00  -2.11280e+00  -2.07080e+00  -2.02800e+00  -1.98450e+00  -1.94050e+00  -1.89600e+00  -1.85120e+00 
 -1.84490e+00  -1.88950e+00  -1.93380e+00  -1.97760e+00  -2.02090e+00  -2.06340e+00  -2.10520e+00  -2.14590e+00  -2.18540e+00  -2.22370e+00  -2.26060e+00  -2.29580e+00  -2.32940e+00  -2.36110e+00  -2.39070e+00  -2.41830e+00  -2.44360e+00  -2.46660e+00  -2.48710e+00  -2.50510e+00  -2.52050e+00  -2.53310e+00  -2.54310e+00  -2.55020e+00  -2.55440e+00  -2.55590e+00  -2.55440e+00  -2.55020e+00  -2.54310e+00  -2.53310e+00  -2.52050e+00  -2.50510e+00  -2.48710e+00  -2.46660e+00  -2.44360e+00  -2.41830e+00  -2.39070e+00  -2.36110e+00  -2.32940e+00  -2.29580e+00  -2.26060e+00  -2.22370e+00  -2.18540e+00  -2.14590e+00  -2.10520e+00  -2.06340e+00  -2.02090e+00  -1.97760e+00  -1.93380e+00  -1.88950e+00  -1.84490e+00 
 -1.83690e+00  -1.88120e+00  -1.92520e+00  -1.96870e+00  -2.01170e+00  -2.05400e+00  -2.09540e+00  -2.13590e+00  -2.17520e+00  -2.21320e+00  -2.24980e+00  -2.28480e+00  -2.31810e+00  -2.34960e+00  -2.37910e+00  -2.40640e+00  -2.43160e+00  -2.45440e+00  -2.47480e+00  -2.49270e+00  -2.50790e+00  -2.52050e+00  -2.53030e+00  -2.53740e+00  -2.54160e+00  -2.54310e+00  -2.54160e+00  -2.53740e+00  -2.53030e+00  -2.52050e+00  -2.50790e+00  -2.49270e+00  -2.47480e+00  -2.45440e+00  -2.43160e+00  -2.40640e+00  -2.37910e+00  -2.34960e+00  -2.31810e+00  -2.28480e+00  -2.24980e+00  -2.21320e+00  -2.17520e+00  -2.13590e+00  -2.09540e+00  -2.05400e+00  -2.01170e+00  -1.96870e+00  -1.92520e+00  -1.88120e+00  -1.83690e+00 
 -1.82720e+00  -1.87110e+00  -1.91480e+00  -1.95800e+00  -2.00060e+00  -2.04250e+00  -2.08360e+00  -2.12370e+00  -2.16270e+00  -2.20040e+00  -2.23670e+00  -2.27140e+00  -2.30450e+00  -2.33570e+00  -2.36490e+00  -2.39210e+00  -2.41700e+00  -2.43960e+00  -2.45980e+00  -2.47750e+00  -2.49270e+00  -2.50510e+00  -2.51490e+00  -2.52190e+00  -2.52610e+00  -2.52750e+00  -2.52610e+00  -2.52190e+00  -2.51490e+00  -2.50510e+00  -2.49270e+00  -2.47750e+00  -2.45980e+00  -2.43960e+00  -2.41700e+00  -2.39210e+00  -2.36490e+00  -2.33570e+00  -2.30450e+00  -2.27140e+00  -2.23670e+00  -2.20040e+00  -2.16270e+00  -2.12370e+00  -2.08360e+00  -2.04250e+00  -2.00060e+00  -1.95800e+00  -1.91480e+00  -1.87110e+00  -1.82720e+00 
 -1.81580e+00  -1.85940e+00  -1.90260e+00  -1.94540e+00  -1.98760e+00  -2.02910e+00  -2.06980e+00  -2.10950e+00  -2.14810e+00  -2.18550e+00  -2.22140e+00  -2.25580e+00  -2.28850e+00  -2.31940e+00  -2.34830e+00  -2.37520e+00  -2.39990e+00  -2.42230e+00  -2.44230e+00  -2.45980e+00  -2.47480e+00  -2.48710e+00  -2.49680e+00  -2.50370e+00  -2.50790e+00  -2.50930e+00  -2.50790e+00  -2.50370e+00  -2.49680e+00  -2.48710e+00  -2.47480e+00  -2.45980e+00  -2.44230e+00  -2.42230e+00  -2.39990e+00  -2.37520e+00  -2.34830e+00  -2.31940e+00  -2.28850e+00  -2.25580e+00  -2.22140e+00  -2.18550e+00  -2.14810e+00  -2.10950e+00  -2.06980e+00  -2.02910e+00  -1.98760e+00  -1.94540e+00  -1.90260e+00  -1.85940e+00  -1.81580e+00 
 -1.80280e+00  -1.84590e+00  -1.88860e+00  -1.93100e+00  -1.97270e+00  -2.01380e+00  -2.05400e+00  -2.09330e+00  -2.13150e+00  -2.16840e+00  -2.20390e+00  -2.23790e+00  -2.27020e+00  -2.30080e+00  -2.32940e+00  -2.35590e+00  -2.38040e+00  -2.40250e+00  -2.42230e+00  -2.43960e+00  -2.45440e+00  -2.46660e+00  -2.47620e+00  -2.48300e+00  -2.48710e+00  -2.48850e+00  -2.48710e+00  -2.48300e+00  -2.47620e+00  -2.46660e+00  -2.45440e+00  -2.43960e+00  -2.42230e+00  -2.40250e+00  -2.38040e+00  -2.35590e+00  -2.32940e+00  -2.30080e+00  -2.27020e+00  -2.23790e+00  -2.20390e+00  -2.16840e+00  -2.13150e+00  -2.09330e+00  -2.05400e+00  -2.01380e+00  -1.97270e+00  -1.93100e+00  -1.88860e+00  -1.84590e+00  -1.80280e+00 
 -1.78830e+00  -1.83080e+00  -1.87300e+00  -1.91480e+00  -1.95610e+00  -1.99660e+00  -2.03640e+00  -2.07510e+00  -2.11280e+00  -2.14920e+00  -2.18430e+00  -2.21790e+00  -2.24980e+00  -2.27990e+00  -2.30820e+00  -2.33440e+00  -2.35850e+00  -2.38040e+00  -2.39990e+00  -2.41700e+00  -2.43160e+00  -2.44360e+00  -2.45310e+00  -2.45980e+00  -2.46390e+00  -2.46530e+00  -2.46390e+00  -2.45980e+00  -2.45310e+00  -2.44360e+00  -2.43160e+00  -2.41700e+00  -2.39990e+00  -2.38040e+00  -2.35850e+00  -2.33440e+00  -2.30820e+00  -2.27990e+00  -2.24980e+00  -2.21790e+00  -2.18430e+00  -2.14920e+00  -2.11280e+00  -2.07510e+00  -2.03640e+00  -1.99660e+00  -1.95610e+00  -1.91480e+00  -1.87300e+00  -1.83080e+00  -1.78830e+00 
 -1.77220e+00  -1.81410e+00  -1.85580e+00  -1.89700e+00  -1.93770e+00  -1.97770e+00  -2.01690e+00  -2.05510e+00  -2.09220e+00  -2.12820e+00  -2.16270e+00  -2.19580e+00  -2.22730e+00  -2.25700e+00  -2.28480e+00  -2.31070e+00  -2.33440e+00  -2.35590e+00  -2.37520e+00  -2.39200e+00  -2.40640e+00  -2.41830e+00  -2.42760e+00  -2.43430e+00  -2.43830e+00  -2.43960e+00  -2.43830e+00  -2.43430e+00  -2.42760e+00  -2.41830e+00  -2.40640e+00  -2.39200e+00  -2.37520e+00  -2.35590e+00  -2.33440e+00  -2.31070e+00  -2.28480e+00  -2.25700e+00  -2.22730e+00  -2.19580e+00  -2.16270e+00  -2.12820e+00  -2.09220e+00  -2.05510e+00  -2.01690e+00  -1.97770e+00  -1.93770e+00  -1.89700e+00  -1.85580e+00  -1.81410e+00  -1.77220e+00 
 -1.75470e+00  -1.79600e+00  -1.83700e+00  -1.87760e+00  -1.91770e+00  -1.95710e+00  -1.99560e+00  -2.03330e+00  -2.06980e+00  -2.10520e+00  -2.13920e+00  -2.17180e+00  -2.20270e+00  -2.23200e+00  -2.25940e+00  -2.28480e+00  -2.30820e+00  -2.32940e+00  -2.34830e+00  -2.36490e+00  -2.37910e+00  -2.39070e+00  -2.39990e+00  -2.40640e+00  -2.41040e+00  -2.41170e+00  -2.41040e+00  -2.40640e+00  -2.39990e+00  -2.39070e+00  -2.37910e+00  -2.36490e+00  -2.34830e+00  -2.32940e+00  -2.30820e+00  -2.28480e+00  -2.25940e+00  -2.23200e+00  -2.20270e+00  -2.17180e+00  -2.13920e+00  -2.10520e+00  -2.06980e+00  -2.03330e+00  -1.99560e+00  -1.95710e+00  -1.91770e+00  -1.87760e+00  -1.83700e+00  -1.79600e+00  -1.75470e+00 
 -1.73580e+00  -1.77640e+00  -1.81680e+00  -1.85670e+00  -1.89610e+00  -1.93480e+00  -1.97270e+00  -2.00970e+00  -2.04570e+00  -2.08040e+00  -2.11390e+00  -2.14590e+00  -2.17630e+00  -2.20500e+00  -2.23200e+00  -2.25700e+00  -2.27990e+00  -2.30070e+00  -2.31940e+00  -2.33570e+00  -2.34960e+00  -2.36110e+00  -2.37000e+00  -2.37650e+00  -2.38040e+00  -2.38170e+00  -2.38040e+00  -2.37650e+00  -2.37000e+00  -2.36110e+00  -2.34960e+00  -2.33570e+00  -2.31940e+00  -2.30070e+00  -2.27990e+00  -2.25700e+00  -2.23200e+00  -2.20500e+00  -2.17630e+00  -2.14590e+00  -2.11390e+00  -2.08040e+00  -2.04570e+00  -2.00970e+00  -1.97270e+00  -1.93480e+00  -1.89610e+00  -1.85670e+00  -1.81680e+00  -1.77640e+00  -1.73580e+00 
 -1.71560e+00  -1.75550e+00  -1.79520e+00  -1.83440e+00  -1.87310e+00  -1.91110e+00  -1.94830e+00  -1.98460e+00  -2.01990e+00  -2.05400e+00  -2.08680e+00  -2.11820e+00  -2.14810e+00  -2.17630e+00  -2.20270e+00  -2.22720e+00  -2.24980e+00  -2.27020e+00  -2.28850e+00  -2.30450e+00  -2.31810e+00  -2.32940e+00  -2.33820e+00  -2.34450e+00  -2.34830e+00  -2.34960e+00  -2.34830e+00  -2.34450e+00  -2.33820e+00  -2.32940e+00  -2.31810e+00  -2.30450e+00  -2.28850e+00  -2.27020e+00  -2.24980e+00  -2.22720e+00  -2.20270e+00  -2.17630e+00  -2.14810e+00  -2.11820e+00  -2.08680e+00  -2.05400e+00  -2.01990e+00  -1.98460e+00  -1.94830e+00  -1.91110e+00  -1.87310e+00  -1.83440e+00  -1.79520e+00  -1.75550e+00  -1.71560e+00 
 -1.69420e+00  -1.73330e+00  -1.77220e+00  -1.81070e+00  -1.84860e+00  -1.88590e+00  -1.92240e+00  -1.95800e+00  -1.99260e+00  -2.02600e+00  -2.05820e+00  -2.08900e+00  -2.11820e+00  -2.14590e+00  -2.17170e+00  -2.19580e+00  -2.21780e+00  -2.23790e+00  -2.25580e+00  -2.27140e+00  -2.28480e+00  -2.29580e+00  -2.30450e+00  -2.31070e+00  -2.31440e+00  -2.31560e+00  -2.31440e+00  -2.31070e+00  -2.30450e+00  -2.29580e+00  -2.28480e+00  -2.27140e+00  -2.25580e+00  -2.23790e+00  -2.21780e+00  -2.19580e+00  -2.17170e+00  -2.14590e+00  -2.11820e+00  -2.08900e+00  -2.05820e+00  -2.02600e+00  -1.99260e+00  -1.95800e+00  -1.92240e+00  -1.88590e+00  -1.84860e+00  -1.81070e+00  -1.77220e+00  -1.73330e+00  -1.69420e+00 
 -1.67160e+00  -1.71000e+00  -1.74810e+00  -1.78580e+00  -1.82290e+00  -1.85940e+00  -1.89510e+00  -1.93000e+00  -1.96390e+00  -1.99660e+00  -2.02810e+00  -2.05820e+00  -2.08680e+00  -2.11380e+00  -2.13920e+00  -2.16270e+00  -2.18430e+00  -2.20390e+00  -2.22140e+00  -2.23670e+00  -2.24980e+00  -2.26060e+00  -2.26900e+00  -2.27510e+00  -2.27870e+00  -2.27990e+00  -2.27870e+00  -2.27510e+00  -2.26900e+00  -2.26060e+00  -2.24980e+00  -2.23670e+00  -2.22140e+00  -2.20390e+00  -2.18430e+00  -2.16270e+00  -2.13920e+00  -2.11380e+00  -2.08680e+00  -2.05820e+00  -2.02810e+00  -1.99660e+00  -1.96390e+00  -1.93000e+00  -1.89510e+00  -1.85940e+00  -1.82290e+00  -1.78580e+00  -1.74810e+00  -1.71000e+00  -1.67160e+00 